/*--------------------------------*- C++ -*----------------------------------*\
| =========                 |                                                 |
| \\      /  F ield         | OpenFOAM: The Open Source CFD Toolbox           |
|  \\    /   O peration     | Version:  2.2.1                                 |
|   \\  /    A nd           | Web:      www.OpenFOAM.org                      |
|    \\/     M anipulation  |                                                 |
\*---------------------------------------------------------------------------*/
FoamFile
{
    version     2.0;
    format      ascii;
    class       volScalarField;
    location    "10";
    object      epsilon;
}
// * * * * * * * * * * * * * * * * * * * * * * * * * * * * * * * * * * * * * //

dimensions      [0 2 -3 0 0 0 0];

internalField   nonuniform List<scalar> 
86889
(
0.1173506071
0.04959752544
0.02658844072
0.01742945476
0.01356867339
0.01219101298
0.01217721543
0.01297988297
0.014278986
0.01586699978
0.01759917275
0.01937442505
0.02112293141
0.02279545689
0.02436377474
0.02581453282
0.02714403652
0.02835114903
0.02944445563
0.03043318882
0.03132944924
0.032148568
0.03290504585
0.03361128491
0.03428118912
0.03492724294
0.03555033448
0.03616723617
0.03679649379
0.03748681394
0.03851567899
0.04030774655
0.04306214667
0.04585875591
0.04572917184
0.04456848953
0.04366150933
0.04298001408
0.04256280103
0.04258734356
0.04325014413
0.04418360167
0.04523243718
0.04632179967
0.04745023809
0.04856110982
0.04980127977
0.05044865643
0.05338753265
0.1264969838
0.1106576679
0.05025760935
0.0263459187
0.01615435948
0.01146880403
0.00933272011
0.008545904368
0.008556994894
0.009073327379
0.009914162268
0.01095581046
0.01210908777
0.01330861082
0.0145068487
0.0156706174
0.01677767009
0.01781541286
0.01877604748
0.01965974264
0.02046607247
0.02120139557
0.02187105821
0.02248530663
0.02305299659
0.02358046971
0.0240786987
0.02454030413
0.02499650202
0.02542023485
0.02584399571
0.02625681509
0.0266626789
0.02706870339
0.02738147806
0.02732886312
0.02636136843
0.02534207709
0.02448282806
0.02384208638
0.02371723418
0.0243686764
0.02523025123
0.0261442433
0.02703614376
0.02790447652
0.02869708882
0.02951940418
0.02957023752
0.0310164969
0.09149591092
0.109605832
0.05157716189
0.02582588939
0.01520390873
0.01009821464
0.007672926191
0.006779544628
0.006709869945
0.007103753477
0.007773644306
0.008608780076
0.009535736781
0.01050278581
0.01147319181
0.01242141924
0.01333057102
0.01419087942
0.01499701872
0.01574605657
0.01643839179
0.01707947739
0.01767392003
0.01822601711
0.018742201
0.019228766
0.01969130253
0.02013365945
0.02055959312
0.02097290946
0.02136962668
0.02175188253
0.02210007615
0.02241347396
0.02261052111
0.02254697861
0.02181253079
0.0209810281
0.02028574223
0.01976198757
0.01945700649
0.01986896462
0.02048931198
0.02118066259
0.02186643659
0.02255815964
0.02318053447
0.02396685102
0.02415239565
0.02427739097
0.08363210326
0.1094092073
0.05122825122
0.02488416398
0.01446338214
0.009477936185
0.006946278356
0.005886181757
0.005694018159
0.005979282447
0.006541751193
0.007273321763
0.008107298561
0.008996045461
0.009902808743
0.0108024096
0.01167740318
0.01251518223
0.01330805045
0.0140534607
0.01475118417
0.01540247553
0.01601064564
0.0165781598
0.01711080963
0.01761403093
0.01809286422
0.0185520112
0.01899190331
0.01941666112
0.01982152206
0.02019965225
0.02053570775
0.02080811972
0.02093050398
0.0205957347
0.0199140577
0.01925539645
0.01873193584
0.01834415986
0.01830257653
0.0186438891
0.01908882439
0.01956290563
0.02002470053
0.02049267587
0.02089565305
0.02148808572
0.0216685165
0.02223617441
0.08278425014
0.10940454
0.05114040174
0.02478990612
0.01429765824
0.009258501828
0.006725951657
0.00555688819
0.005258300413
0.005433553568
0.005882227954
0.006498760477
0.007222314682
0.008008441369
0.008824598822
0.009645960484
0.01045420713
0.01123695732
0.01198621323
0.01269706248
0.01336741934
0.01399706311
0.01458870924
0.01514470944
0.01566894491
0.01616778908
0.01664470789
0.01710489533
0.01754294274
0.01796983823
0.01837370066
0.01874144
0.01906406799
0.01932136706
0.01945747928
0.0193421049
0.01876029181
0.01826906748
0.01788089566
0.01758938093
0.01765013103
0.01788016181
0.01816748754
0.01848409584
0.01880597014
0.01915626148
0.0194650729
0.02001235637
0.02013333992
0.02077333288
0.08220411228
0.1094039668
0.05111853324
0.02477079617
0.01427256057
0.009164428573
0.006608727041
0.00540949058
0.005073607606
0.005208139584
0.00561523721
0.006190555125
0.006873628539
0.007622154588
0.008403782585
0.009194257253
0.009975916197
0.01073604435
0.01146603815
0.01216052614
0.01281706812
0.01343496362
0.0140157014
0.01456260761
0.0150788794
0.01557121153
0.01604153604
0.01649390472
0.0169310631
0.01734780923
0.01773959782
0.0181032386
0.0184236275
0.01867814648
0.01883286792
0.01883950724
0.01862375876
0.01814207418
0.01780530055
0.01768798507
0.01768176695
0.01768673764
0.01771155465
0.01784201454
0.0180005028
0.01822192136
0.01844427138
0.01894537446
0.01910327049
0.01975601081
0.08150130215
0.1094033267
0.05111352409
0.02476630593
0.0142655532
0.009154765755
0.006573254175
0.005347082652
0.00499248332
0.005101975572
0.005481404197
0.006027747269
0.006681348633
0.007400372973
0.008152830053
0.008914945681
0.009669315668
0.01040338744
0.01110865021
0.0117798007
0.01241425012
0.01301137578
0.01357195554
0.01409916029
0.01459721022
0.01507137225
0.01552505635
0.01596486108
0.01639233514
0.01680610585
0.01719934701
0.01756791149
0.01789796424
0.01815794953
0.01831600624
0.01836302941
0.01828408042
0.01809807122
0.01790835989
0.01774432617
0.01759021716
0.0173881533
0.01720377688
0.01719187009
0.0172538948
0.01741124572
0.01758798129
0.01804350031
0.01829947843
0.01888848861
0.08071891034
0.1094026819
0.05111241499
0.02476553273
0.01426423404
0.009152814146
0.006570732076
0.005322324044
0.004950520376
0.005047917237
0.005414626824
0.005947701177
0.006588060203
0.007294215741
0.008034252588
0.008784486933
0.009527424762
0.01025053843
0.01094500634
0.01160548179
0.01222895642
0.01281496322
0.01336424169
0.01388040922
0.01436590137
0.01482753172
0.01527075422
0.01570255221
0.01612812016
0.0165596703
0.01697512723
0.01736730066
0.01771386596
0.01797961431
0.01813453413
0.01818135659
0.01813468529
0.01803269353
0.01788505727
0.01768645303
0.01745075884
0.01715620871
0.01689091418
0.01677804575
0.01678249859
0.01689437087
0.01703908295
0.0174739637
0.01779366285
0.01838836775
0.08022896455
0.1094020168
0.05111167604
0.02476484296
0.01426342086
0.009151854643
0.006569647448
0.005320240038
0.004935871733
0.005019426845
0.005376443234
0.00589843255
0.006527021922
0.007221000992
0.007948606628
0.008686271141
0.009416507002
0.01012680557
0.01080810885
0.01145496914
0.01206395259
0.01263432669
0.01316698207
0.01366680981
0.01413704093
0.01458497007
0.01501405733
0.01543468825
0.01586244316
0.01629790413
0.01672336681
0.01712824205
0.01748503596
0.01775374724
0.01791258908
0.01796267707
0.01791118925
0.0177822641
0.01758765232
0.01732243484
0.01701609563
0.01669045504
0.01637458351
0.01622038248
0.0161631612
0.01622296883
0.01630373681
0.01666142444
0.01708152417
0.01752220507
0.0793068438
0.1094013539
0.05111119688
0.02476455963
0.01426322682
0.009151691468
0.006569467778
0.005318817131
0.00493330343
0.005004152768
0.005357040794
0.005874355227
0.006498633453
0.007188498444
0.007912086609
0.008645642555
0.009371612621
0.01007713216
0.01075293289
0.01139297383
0.01199396566
0.01255630018
0.01308078965
0.01357252114
0.01403472487
0.01447198435
0.01489094932
0.01530588021
0.01572826496
0.01616207853
0.01659497511
0.01700598322
0.01736110812
0.0176237174
0.01775830219
0.0177774343
0.01772928303
0.01764894254
0.01748750525
0.01718381269
0.01688261201
0.0165729884
0.01632444646
0.01618536678
0.0160889053
0.01608963523
0.01616598362
0.01650031738
0.01693705299
0.01742095172
0.07920024606
0.1094006918
0.05111064954
0.02476411076
0.01426282955
0.009151308717
0.006569091207
0.005318141306
0.004932428612
0.005003376698
0.005356036139
0.005872553979
0.006495746585
0.007184074316
0.007905788414
0.008636847662
0.009359610017
0.01006068506
0.01073065676
0.01136360322
0.01195680443
0.01251094445
0.01302434071
0.01349802944
0.01393646288
0.01434573138
0.01473390946
0.0151243423
0.01553193913
0.01597047015
0.01641872201
0.01685511084
0.01723325724
0.01752071317
0.01766802958
0.01765920033
0.01754220334
0.01734429646
0.01713413975
0.01684421909
0.01658140623
0.01635307796
0.01619441473
0.01607796834
0.01599685136
0.01599583992
0.01607262537
0.01626183048
0.01671630023
0.01685331765
0.07839167848
0.1094001037
0.0511102186
0.02476383344
0.01426262285
0.009151126276
0.006568912274
0.005317282541
0.004931023214
0.005001836964
0.005354114524
0.005870389243
0.006493481814
0.007181674905
0.007903210747
0.00863340043
0.009354913658
0.01005270892
0.01071888184
0.01134654483
0.01193473138
0.01247701244
0.01297314171
0.01341343565
0.01380933939
0.01416384113
0.0145044094
0.01484824706
0.01523732484
0.01568670811
0.01615761941
0.01661227902
0.01700050907
0.01727523769
0.0174606034
0.01759839624
0.01785352161
0.01798993639
0.01789333447
0.01779051584
0.01755687149
0.01729086713
0.01701802511
0.01680113301
0.01664295999
0.0165914317
0.01661342959
0.01695165971
0.0173155834
0.01780534254
0.07952776301
0.1093995442
0.05110981487
0.02476353698
0.01426237477
0.009150893225
0.006568683294
0.005316818674
0.00493030459
0.005001307514
0.005353385775
0.005869588705
0.006491909854
0.007179261226
0.007899343494
0.008627802371
0.009345668218
0.01003962578
0.01070002043
0.01132229892
0.01189669464
0.01241775362
0.01287346921
0.01326121685
0.01356626881
0.0138138984
0.01402229864
0.01426643654
0.01462047433
0.0151329333
0.01572909046
0.01632725097
0.01683443063
0.01721324689
0.01728637878
0.01724338033
0.01631736129
0.01570890234
0.01546028052
0.01527246786
0.0151368582
0.01505551127
0.01499408608
0.01495161641
0.01492634765
0.01497968304
0.01509499553
0.01531310567
0.01577975976
0.01573284775
0.07704614619
0.1093990743
0.05110944157
0.02476327869
0.01426217651
0.009150727028
0.00656852085
0.005316317402
0.004929597293
0.005000670821
0.005352516156
0.005868246909
0.006490270881
0.007177229515
0.007896564785
0.008623531903
0.009338946235
0.01002874931
0.01068634828
0.01130033155
0.01186034504
0.01234929548
0.01275182659
0.01304480595
0.01320987637
0.01324294574
0.01324905391
0.01332615287
0.01351610727
0.01398776469
0.01459808044
0.01528946292
0.01585062708
0.01629882843
0.01649886597
0.01693964195
0.01815114804
0.01813429496
0.01701036212
0.01645167534
0.01625790602
0.01599928742
0.01571149875
0.01544164884
0.01530483463
0.0152715484
0.01531799883
0.01547956501
0.01590039293
0.01590711236
0.07722049097
0.1093986762
0.05110911475
0.02476303291
0.01426197641
0.009150553343
0.006568353261
0.005315998948
0.004929258038
0.005000575261
0.005352302727
0.005867774912
0.006489338981
0.007175612398
0.007893904634
0.008619138014
0.009330958197
0.01001598937
0.01066457838
0.01126724799
0.01180775603
0.01225661202
0.01258179381
0.01273252984
0.012719089
0.01277887651
0.01290215348
0.01308042482
0.01320503856
0.01388847109
0.01468986944
0.01566032454
0.01651161894
0.01701217436
0.01722991966
0.01723098641
0.01917326267
0.02192217044
0.02408164642
0.02462397506
0.02476269756
0.02434947931
0.02365003984
0.02287961849
0.02213295842
0.02156326154
0.02108135463
0.02091891557
0.02062049768
0.02102061107
0.08214400243
0.1093983896
0.051108887
0.02476287176
0.01426185348
0.009150457241
0.006568257817
0.005315746376
0.004929030803
0.00500045657
0.005352281713
0.005867487593
0.006488716168
0.007174553137
0.007892118209
0.008616014274
0.009325279822
0.01000550318
0.01064512529
0.01123274473
0.01174981343
0.01215219026
0.01238371256
0.01237222356
0.01243335475
0.0125691623
0.01279339995
0.01314931476
0.01273892077
0.0131329994
0.01263882957
0.0132480828
0.01429523324
0.01525362721
0.01551610882
0.01601636537
0.01735350849
0.01787389719
0.01775385979
0.01864507284
0.0191845893
0.01922387419
0.01882553989
0.01821730212
0.01750894146
0.01721289526
0.0170002764
0.01704988447
0.01728253572
0.01774770462
0.07942081162
0.1093982068
0.05110873813
0.0247627606
0.01426176473
0.0091503824
0.006568186753
0.00531561372
0.004928999328
0.005000510053
0.005352897166
0.005868059725
0.00648900664
0.007174422261
0.007891307447
0.008614090346
0.00932120211
0.009998083441
0.01063070294
0.01120402911
0.01170334919
0.01206374674
0.01222130772
0.01220470656
0.01231150672
0.01257462129
0.01299619075
0.0134894348
0.0137183764
0.01422771018
0.01377610581
0.01481937148
0.01728620301
0.01982703209
0.02019201205
0.01986969979
0.01915528964
0.0181837202
0.01825596307
0.01945844251
0.02056928519
0.02114047626
0.02113548792
0.0205165385
0.01961056392
0.01915697648
0.0187194169
0.01858586831
0.01865757689
0.01874182433
0.08010455702
0.1093981459
0.05110869631
0.0247627328
0.01426174413
0.009150366384
0.006568171703
0.005315570449
0.004928972925
0.005000444099
0.005353113901
0.005868297621
0.006489134335
0.007174392332
0.007891031205
0.008613528922
0.009319621451
0.009995709599
0.01062271252
0.01119292993
0.01167197139
0.01200779845
0.01208204103
0.01205799106
0.01218928246
0.01253756174
0.01288456175
0.01325257608
0.01381483416
0.01344648546
0.01732000291
0.02185893654
0.0291818633
0.03611394958
0.03490851732
0.03312056268
0.03164525665
0.02873085329
0.02660412504
0.02557767486
0.0261271666
0.02682357508
0.02681645051
0.02629674267
0.0255709436
0.02521296661
0.02491506397
0.02488869734
0.02468065784
0.02503890747
0.08566412498
0.1093982011
0.05110875491
0.02476277455
0.01426177419
0.009150390562
0.006568194267
0.005315616889
0.004928945457
0.005000464899
0.005352642867
0.005867795218
0.006488776302
0.007174217459
0.007891127886
0.008613931344
0.009321072827
0.009997906873
0.01063060666
0.01120391574
0.01170327097
0.01206352417
0.01222099508
0.01220594991
0.01231235817
0.01257556136
0.01299744112
0.0134904957
0.01371857316
0.01493486795
0.01738366751
0.02634408464
0.04363134621
0.06253415867
0.05356363684
0.04695244667
0.04737459909
0.03939344961
0.03474403072
0.03135333972
0.02866704879
0.02713453281
0.02607174026
0.02482487137
0.0235387786
0.02277482895
0.02211889413
0.02179501159
0.02156352569
0.02147265375
0.08228321102
0.1093983776
0.0511089012
0.02476288592
0.01426186305
0.009150465823
0.006568267615
0.005315766471
0.004929006214
0.005000424811
0.00535216763
0.005867416116
0.006488692269
0.00717456574
0.007892163515
0.008616082733
0.009325384858
0.01000559509
0.01064539949
0.01123306168
0.01175006031
0.01215248534
0.01238384421
0.01237269861
0.01243326634
0.01256792388
0.01279164941
0.01314950499
0.01274518475
0.013743446
0.0193071966
0.03632352439
0.07116588102
0.1782865698
0.1382843081
0.1102080233
0.09800104374
0.07650631248
0.06010874506
0.04962496317
0.04262561919
0.03687229951
0.03259884267
0.02928902314
0.02666294371
0.02477565794
0.02335727031
0.02234722574
0.02185792246
0.0212163695
0.08237668504
0.1093986644
0.05110912813
0.02476304861
0.01426199463
0.009150574641
0.006568374224
0.005316023731
0.004929249767
0.005000516431
0.005352261871
0.005867782863
0.00648937739
0.007175671091
0.00789398048
0.008619230829
0.009331074469
0.01001613561
0.01066487815
0.01126742305
0.01180795258
0.01225693303
0.01258175695
0.01273226163
0.01271818814
0.01277546989
0.01289763192
0.01307912466
0.01353844654
0.01571025376
0.02367034175
0.04409658965
0.09083292115
0.2991179681
0.02952321393
0.02929128312
0.04021415549
0.03919384704
0.03677478334
0.034954607
0.03386423777
0.03288768906
0.03237773263
0.03218088136
0.03207970185
0.03210551348
0.03222381039
0.03248533651
0.03298462046
0.0331150261
0.1032875985
0.1093990523
0.05110945065
0.02476329179
0.01426219278
0.009150742815
0.006568540246
0.005316361227
0.004929640548
0.005000685068
0.00535260053
0.005868385348
0.006490442153
0.007177428031
0.007896782877
0.008623776539
0.009339200501
0.01002903243
0.01068667649
0.01130090333
0.01186064569
0.01235015406
0.01275231095
0.0130457049
0.0132117081
0.01324904018
0.01325791099
0.01333508316
0.01371671925
0.01557068555
0.02177136642
0.03860021392
0.07258615606
0.179035877
0.1395718151
0.1107844666
0.09260677789
0.07328447736
0.05774557954
0.04747056527
0.04101626337
0.03646129004
0.0332664689
0.03085425172
0.0289989479
0.02760330337
0.02658627744
0.02603633106
0.02546334864
0.02530322378
0.08825320684
0.109399522
0.05110980816
0.02476353587
0.0142623793
0.009150903669
0.00656869903
0.00531684825
0.004930374688
0.005001336294
0.005353449509
0.0058696876
0.006492029025
0.007179390812
0.007899482686
0.008627955108
0.00934583541
0.01003982949
0.01070023162
0.0113227534
0.01189715215
0.01241878316
0.01287433725
0.01326455889
0.01357862611
0.01383294656
0.01403143955
0.01429151623
0.01471354531
0.0159752667
0.01940462169
0.02855370142
0.04537607865
0.06333209766
0.05456067063
0.04709032929
0.04159650857
0.03579089975
0.03133659454
0.02803085615
0.02579389457
0.02407780684
0.02272421388
0.02165657522
0.02081391577
0.02019320209
0.01977606787
0.01962300663
0.01976601075
0.01975941922
0.08137771427
0.1094000666
0.05111019523
0.0247638201
0.01426261633
0.009151131749
0.006568926978
0.005317352256
0.004931161746
0.005001962963
0.005354294062
0.005870607132
0.006493723331
0.007181939919
0.007903507627
0.008633740826
0.009355278463
0.01005315195
0.01071926449
0.01134723963
0.0119356641
0.0124783686
0.01297516879
0.01342171499
0.01382895647
0.01419118679
0.01453169215
0.01487816687
0.01527155704
0.01594098492
0.01742117176
0.02112591393
0.02771675833
0.03360974478
0.03045289512
0.02773251218
0.02557607072
0.02345230567
0.02166087108
0.02046886136
0.0195473893
0.01882866975
0.01824989112
0.01779334136
0.01743817069
0.01724166357
0.01716015917
0.017221407
0.01757329935
0.01750108035
0.07887149466
0.1094006555
0.0511106323
0.02476410568
0.01426283371
0.009151321484
0.006569110831
0.0053181849
0.004932505845
0.005003427886
0.005356132985
0.005872677571
0.006495878283
0.007184199617
0.007905928084
0.00863697561
0.009359755338
0.01006084369
0.01073086869
0.01136383538
0.01195724365
0.0125114322
0.01302576747
0.01350229091
0.01394532803
0.01435637154
0.01474409776
0.01513198822
0.01553869239
0.01600887933
0.01671436082
0.01804153555
0.02027357591
0.02227599306
0.02161744034
0.02050503571
0.01959936711
0.01879654523
0.01816025449
0.01768030063
0.01730089581
0.01698149403
0.01675369872
0.0165846312
0.01646457584
0.01643028271
0.01647968788
0.01674383227
0.01717007301
0.01749302528
0.07918848144
0.1094013059
0.05111114992
0.02476452577
0.01426321237
0.009151685966
0.006569473924
0.005318902685
0.004933463706
0.005004302505
0.005357269775
0.005874626806
0.006498952283
0.007188878249
0.007912552255
0.008646201787
0.009372285442
0.01007792996
0.01075387087
0.01139406624
0.01199524602
0.01255774336
0.01308233218
0.01357400049
0.01403667479
0.01447337716
0.01489153138
0.0153049842
0.01572832795
0.01616608951
0.01664538542
0.01722566768
0.01799517121
0.0186708502
0.01864554063
0.01805912262
0.0175506262
0.01714356262
0.01683011347
0.01656907493
0.01636610996
0.01613913584
0.01595860879
0.01587491265
0.01582488907
0.01586412998
0.01597419124
0.01631586363
0.01677755078
0.01726556911
0.07903090358
0.1094019668
0.05111162254
0.02476481395
0.01426341742
0.009151872964
0.006569679752
0.005320372604
0.004936010249
0.005019535419
0.005376613609
0.005898604
0.006527148865
0.007221078548
0.007948647071
0.008686289581
0.009416520903
0.01012684126
0.01080818451
0.01145511332
0.01206420127
0.01263469562
0.01316744217
0.0136674204
0.01413788099
0.01458582881
0.01501446064
0.01543472802
0.01586241201
0.01629791808
0.01672672525
0.01715331675
0.01758107076
0.01793381056
0.01808046256
0.01804461212
0.01794053541
0.01779803841
0.01761205263
0.01736296331
0.01707576236
0.01675101662
0.01645307752
0.01633449897
0.01631556959
0.01642523621
0.0165480041
0.01696614837
0.01734764345
0.0178879428
0.07971013441
0.1094026215
0.05111232097
0.02476546033
0.01426418414
0.009152785942
0.006570718039
0.005322166313
0.004950343908
0.005047815736
0.005414643512
0.005947794472
0.006588245488
0.007294532735
0.008034721358
0.008785131223
0.009528266535
0.01025161786
0.01094631238
0.01160700857
0.0122306384
0.01281672224
0.01336591439
0.01388157332
0.01436674022
0.01482760855
0.01526988551
0.01570090944
0.01612552779
0.01655701141
0.01697321171
0.01736840557
0.01772342084
0.01799786259
0.01814860588
0.01817986337
0.01811671139
0.01799765525
0.01784275452
0.01764234358
0.01741181238
0.017128616
0.0168811358
0.01679069059
0.01681690096
0.01695647894
0.01712567278
0.01758213382
0.01788967259
0.01851220174
0.08034761015
0.109403265
0.05111346043
0.02476627004
0.01426554379
0.009154774249
0.006573264709
0.005347234191
0.00499284865
0.005102481329
0.005482330773
0.006028684941
0.006682104046
0.007400973227
0.008153318372
0.008915353891
0.009669656604
0.01040369644
0.01110885709
0.01177984315
0.01241396795
0.0130107323
0.01357125814
0.0140985163
0.01459634603
0.01506986029
0.01552473481
0.01596388176
0.01639095052
0.01680536875
0.0171970056
0.01756671136
0.01789855521
0.01816163612
0.01832407135
0.0183766065
0.0183111962
0.0181384347
0.01795803922
0.0178009003
0.01765181581
0.01745447406
0.01727593956
0.01724781655
0.01731987567
0.0174956524
0.01769353214
0.01817413037
0.01841493083
0.01905820583
0.08090973444
0.1094038958
0.05111837561
0.02477065809
0.01427245202
0.009164323041
0.00660865315
0.005409278825
0.005073279694
0.005207652487
0.005614291046
0.00618971191
0.006872810214
0.007621570057
0.008403527614
0.009194347531
0.009976337002
0.01073668808
0.01146678606
0.01216135025
0.01281796338
0.01343622551
0.01401718099
0.01456473283
0.01508181683
0.01557346689
0.01604448046
0.01649788134
0.01693630655
0.01735234361
0.01774681528
0.01811020615
0.01843169392
0.018687665
0.0188450708
0.0188557259
0.0186411998
0.01815911061
0.01782106291
0.01770383365
0.01769936309
0.01771022044
0.01774337097
0.01787097117
0.01803835521
0.01827768443
0.01851360719
0.01902969427
0.01917768981
0.01985385515
0.08159765333
0.1094044814
0.05114048867
0.02479000441
0.01429771274
0.009258557221
0.006726041127
0.00555763177
0.005259522779
0.005435017481
0.005883871369
0.006500477455
0.007224428473
0.008010764415
0.008827668772
0.009649179979
0.01045737355
0.01124009828
0.01198932875
0.01270025402
0.01337092302
0.01400092996
0.01459294038
0.01514960319
0.01567442931
0.01617624153
0.01665029193
0.01711329847
0.01755093665
0.01797351134
0.0183788669
0.01874899759
0.01907428176
0.0193368509
0.01948004935
0.01936703612
0.01878275226
0.0182906482
0.01790234935
0.01761007485
0.01767938559
0.01791897523
0.01821618963
0.01854256547
0.0188745508
0.01923829832
0.01955720506
0.02011195126
0.02024967172
0.02091367038
0.0823379757
0.1094173846
0.05123181049
0.02488721568
0.01446519963
0.00947906143
0.006947009289
0.005886139214
0.005693515574
0.005978604137
0.006541067181
0.007272712354
0.008106867616
0.008995876987
0.009902252427
0.01080226564
0.01167747784
0.01251531246
0.01330845813
0.01405463106
0.01475285934
0.01540429212
0.0160126338
0.01658045635
0.01711286785
0.01761829552
0.01809705398
0.01855779774
0.01899923497
0.01942008088
0.01982295394
0.02019671324
0.02053193383
0.02080857929
0.02093606369
0.02060691509
0.01992579556
0.0192678017
0.01874509546
0.01835757293
0.01831862562
0.018663431
0.01911315962
0.0195935795
0.02006345823
0.02054014867
0.02095469022
0.0215474305
0.02172893979
0.02231450684
0.08284919434
0.1096137305
0.05158137566
0.02583022325
0.01520670247
0.01010020415
0.007676381836
0.006783678248
0.006714322911
0.007108757215
0.007779231933
0.00861492398
0.009542481165
0.0105101505
0.01148115443
0.01242972894
0.01333982771
0.01420126312
0.01500847913
0.01575768432
0.01645068129
0.01709115936
0.01768576156
0.01823710067
0.01875410002
0.01924082293
0.01970438675
0.02014799232
0.02057587099
0.02099023989
0.02138925971
0.0217710235
0.02212035264
0.02243638926
0.02263586521
0.02258073794
0.02184297584
0.02100849495
0.02031126108
0.01978618141
0.01949133111
0.01991167113
0.0205407132
0.02124163747
0.02193617734
0.02263892727
0.02325894592
0.02406181831
0.02427340046
0.02442898885
0.08376519178
0.1106576638
0.05025753272
0.02634532828
0.01614963397
0.01146244398
0.009326871489
0.008540403225
0.008551457795
0.009067700005
0.009908460219
0.01094995228
0.01210299821
0.01330229951
0.01450024307
0.01566365412
0.0167706116
0.01780801011
0.01876925927
0.0196524341
0.02045968365
0.02119395995
0.02186363926
0.02247743138
0.02304596822
0.0235723069
0.02407350465
0.02453925285
0.02499501587
0.02542748532
0.02584552997
0.02625780929
0.02666155852
0.02707984911
0.02739165013
0.02734426898
0.02637633878
0.02535635435
0.02449717563
0.02385672747
0.02373477742
0.02439253864
0.02526098072
0.02618281081
0.02708298121
0.02796142722
0.02876392597
0.02960511971
0.0296641106
0.03111089327
0.09156681663
0.1173505323
0.04959737484
0.02658842004
0.01743025713
0.01357114808
0.01219482901
0.01218129025
0.01298360136
0.01428216258
0.01586951488
0.01760089886
0.01937529492
0.02112284461
0.0227946353
0.02436228245
0.0258127992
0.02714136308
0.02834755828
0.02943886315
0.03042777413
0.0313258666
0.03214586715
0.03290292262
0.03360874816
0.03427344004
0.0349100472
0.03553314811
0.03613950975
0.03676854747
0.0374672602
0.03849833542
0.04028653777
0.04305324543
0.04584860536
0.04573169797
0.04457442844
0.04367035764
0.04299148264
0.04257672028
0.04261477044
0.04328923653
0.04423303135
0.04529074813
0.04638799452
0.0475237677
0.04864229584
0.04988242867
0.05053672705
0.05350699345
0.1266055929
0.1103609052
0.0458760568
0.02162299058
0.01249994947
0.008517566362
0.006748183961
0.006075691275
0.006030606886
0.006384142268
0.007004591157
0.007804347902
0.008718620987
0.009697044615
0.01070012513
0.01169753158
0.01266619874
0.01358973041
0.0144567142
0.01526121437
0.01599972672
0.01667353956
0.01728337684
0.01783373278
0.01832842466
0.01877276789
0.01917002529
0.0195368726
0.01985729906
0.02025083847
0.02095449542
0.02263402087
0.02612810323
0.03192727397
0.03838668105
0.03719975817
0.03413632354
0.03146171465
0.02913078947
0.02724897658
0.02571126857
0.02449142369
0.0235456564
0.02282026138
0.02227051386
0.0218605661
0.02156316261
0.02136294672
0.02146411405
0.02238262087
0.0833970182
0.1003267337
0.04236354632
0.02071876574
0.01103674445
0.006477175031
0.004105570504
0.002768008894
0.001963448823
0.001454058311
0.001118176137
0.0008895431518
0.0007300824073
0.0006168595281
0.0005354834211
0.0004766006319
0.000433949348
0.0004031783582
0.0003812348629
0.0003659370739
0.0003556450085
0.000349397407
0.0003463974555
0.0003463678713
0.000349173276
0.0003546272689
0.0003630729934
0.0003738806251
0.000387971097
0.0004048373759
0.0004288631542
0.0004679441861
0.0005407814056
0.0006683497378
0.0008233684511
0.0007891600149
0.0007408176976
0.0006964507343
0.0006577763282
0.0006376111647
0.0006305950809
0.0006365978717
0.0006533974068
0.000678614937
0.0007088730107
0.0007423170681
0.0007774751268
0.0008037415022
0.002233013521
0.002055834063
0.008054762361
0.0987064465
0.04169511629
0.02048568572
0.01095699561
0.006447508071
0.004090514195
0.002755404349
0.001948522622
0.001434573598
0.001092893355
0.0008576803922
0.0006911178704
0.0005704745491
0.0004815646356
0.0004152177058
0.0003653442046
0.000327752905
0.0002996193146
0.0002788817828
0.0002641698622
0.000254439976
0.0002489571398
0.0002472555609
0.0002490022543
0.0002539984852
0.000262146713
0.00027345257
0.0002876231765
0.0003045562086
0.0003236587629
0.0003440787958
0.0003639460257
0.0003810905245
0.0003921819703
0.0003945094225
0.0003762216055
0.0003419770279
0.0003255682959
0.0003374762953
0.0003625882724
0.0003954279052
0.0004340975012
0.0004778472934
0.0005242447064
0.0005728364798
0.0006237438599
0.0006726479022
0.002206881391
0.00201876779
0.004968956393
0.09880069431
0.0421621288
0.02081451378
0.01101700137
0.006481763381
0.004107601465
0.002763852782
0.001952423021
0.001435992806
0.001092941411
0.0008569706634
0.0006900150605
0.0005692054284
0.0004802386201
0.0004138881139
0.0003640294583
0.0003264889673
0.000298347118
0.0002775596166
0.0002626831762
0.0002527134424
0.0002469055894
0.0002447735076
0.0002460230521
0.0002505071013
0.0002581117361
0.000268855845
0.0002825304689
0.0002988707847
0.0003173371601
0.0003363540024
0.0003538076888
0.0003666956037
0.0003712218805
0.0003620508027
0.0003294878855
0.0003011902964
0.0002764386456
0.000264432837
0.0002698986193
0.0002843737116
0.0003044024633
0.000328304763
0.0003544216383
0.0003822929341
0.0004130839071
0.0007152134868
0.003435537849
0.003127516858
0.005892368872
0.099208758
0.0428753
0.02082348519
0.01093814873
0.006447555082
0.00408736955
0.002750110973
0.001942267091
0.00142775438
0.001085595981
0.0008498405297
0.0006826294191
0.0005612173429
0.0004714041094
0.000404015211
0.0003529566836
0.0003140873195
0.000284524917
0.0002622419208
0.0002458018002
0.0002341826435
0.0002266811209
0.0002228118364
0.0002222653082
0.0002249432528
0.0002306656672
0.0002395511181
0.0002511960539
0.0002654029995
0.0002810576218
0.0002972536734
0.0003115610524
0.0003207976446
0.0003216785179
0.0003111971078
0.0002856457667
0.0002619985696
0.0002413504233
0.0002265563217
0.0002213889984
0.0002233903872
0.0002311304995
0.0002437432329
0.0002597442321
0.0002803170672
0.0005859482404
0.001050293959
0.003523915774
0.003183339687
0.005880108607
0.09920928016
0.04287344149
0.02082688579
0.01093254476
0.006446697125
0.004078267642
0.002744070833
0.001937930058
0.001424409007
0.001082854151
0.0008474924927
0.0006805465871
0.0005593257464
0.0004696512736
0.0004023621157
0.0003513725972
0.0003125403329
0.0002829795829
0.0002606450693
0.0002440855957
0.000232269512
0.0002244828035
0.0002202607286
0.0002193253565
0.0002215691786
0.0002267893856
0.0002351953484
0.000246349168
0.0002333032478
0.0002521847463
0.000331314913
0.0003785565464
0.0003791185284
0.0003692608381
0.0003523648768
0.0003228481173
0.0002956032019
0.0002717783391
0.0002510157412
0.000232782485
0.0002155952536
0.0002008268098
0.0001997303679
0.0002308611507
0.0003574222577