/*--------------------------------*- C++ -*----------------------------------*\
| =========                 |                                                 |
| \\      /  F ield         | OpenFOAM: The Open Source CFD Toolbox           |
|  \\    /   O peration     | Version:  2.2.1                                 |
|   \\  /    A nd           | Web:      www.OpenFOAM.org                      |
|    \\/     M anipulation  |                                                 |
\*---------------------------------------------------------------------------*/
FoamFile
{
    version     2.0;
    format      ascii;
    class       volScalarField;
    location    "10";
    object      k;
}
// * * * * * * * * * * * * * * * * * * * * * * * * * * * * * * * * * * * * * //

dimensions      [0 2 -2 0 0 0 0];

internalField   nonuniform List<scalar> 
86889
(
0.01361570515
0.008933511982
0.007385508935
0.007156856001
0.00778983726
0.009072392155
0.01083916387
0.0129466461
0.01526978401
0.01770895805
0.02018805045
0.02265111248
0.02505783202
0.02737868372
0.02959692095
0.03170483897
0.03370075385
0.03558462648
0.03736319824
0.03904414303
0.0406370581
0.04215429634
0.04360777487
0.04500861559
0.04636929774
0.04770166152
0.04901012234
0.05030902945
0.05161543688
0.05296762141
0.05456104962
0.05670375056
0.05953703108
0.06243392167
0.06335680648
0.06358062879
0.06398309784
0.06457176933
0.06538002934
0.0665298059
0.06816617507
0.07003113876
0.07201605246
0.07407090009
0.07619711093
0.07835968492
0.08065720397
0.08268728517
0.08613290505
0.1323745545
0.01309531113
0.009722209062
0.007202883448
0.00611591208
0.005909491678
0.006321640003
0.007190145129
0.008395301823
0.009841287873
0.0114489072
0.01315355085
0.01490382896
0.01665973767
0.01839092439
0.02007547334
0.0216981566
0.02325008857
0.0247254169
0.02612406612
0.02744544526
0.02869406044
0.02987396118
0.03099337465
0.03205977759
0.03307900756
0.03406067182
0.03500055264
0.03592360915
0.03681118186
0.03768902187
0.03855047536
0.03940022532
0.04024410807
0.04101195701
0.04148981951
0.04126370212
0.04101568457
0.04095681909
0.04108220219
0.04164569524
0.04289190305
0.04433249098
0.04583140103
0.04732336101
0.04880660263
0.05023464941
0.05169815314
0.05248673876
0.0538106182
0.09936220068
0.01300593604
0.01050153305
0.007002786901
0.005417911571
0.004707849586
0.004691891513
0.005304843939
0.0062963003
0.007510122059
0.008857442218
0.01028118223
0.01174025368
0.01320378055
0.01464878568
0.01605869815
0.0174221996
0.0187326095
0.01998615727
0.02118065794
0.02231634523
0.02339750017
0.02442792389
0.02541126377
0.02635297345
0.02725859437
0.02813336414
0.02898127544
0.02980637734
0.03061274276
0.03139851405
0.03216614983
0.03290152173
0.03360345211
0.03420995156
0.03460428477
0.03447209429
0.03426428125
0.03423330033
0.03434464706
0.03462790971
0.03554144468
0.03664302142
0.03781383859
0.03898661361
0.04017187067
0.04130226814
0.04258802385
0.04337691541
0.04240283959
0.08781809819
0.01298775839
0.01028593945
0.006645147845
0.005058409074
0.0043226833
0.004104097849
0.004497628609
0.005351034073
0.006466271844
0.007733810065
0.009092682614
0.01050330399
0.01193517027
0.01336302664
0.01476915412
0.01614090019
0.01746866915
0.0187463927
0.01997198429
0.02114516563
0.0222668756
0.02333981545
0.02436611682
0.02535078345
0.02629877906
0.02721490861
0.02810388564
0.0289669591
0.02980842862
0.0306252146
0.03141219832
0.03215672087
0.03284019163
0.0333894602
0.03354570672
0.03339094484
0.03319040619
0.03313487425
0.03320679518
0.03357014491
0.03426714145
0.03505910755
0.03588261282
0.03670134802
0.03753192349
0.03831088884
0.03927077081
0.03993368617
0.03948628321
0.08569319492
0.01298741319
0.01023148147
0.006596728721
0.004975846695
0.00418954544
0.003937555946
0.004196069963
0.004935372916
0.005944064062
0.007108640029
0.008368102024
0.009686685126
0.0110353489
0.01239158343
0.013737301
0.01505864047
0.01634599043
0.01759295091
0.01879542267
0.01995154595
0.02106100015
0.02212603294
0.02314869724
0.02413246998
0.02508320878
0.02600446098
0.02690142469
0.02777018452
0.02862083142
0.0294439557
0.03022842734
0.03096596557
0.03163802625
0.03219469026
0.03252002935
0.03242260227
0.0323590898
0.03237559216
0.0324694486
0.03285987111
0.03339599246
0.03398326208
0.03459943366
0.03522409734
0.03587849002
0.0365075925
0.03737625561
0.03795297959
0.03759302395
0.08438666415
0.01298730761
0.01021824183
0.006584399716
0.004959562482
0.004133340547
0.003848780889
0.00405868519
0.004750312912
0.005712865952
0.006833850235
0.008052372925
0.00933225227
0.01064591747
0.01197056855
0.01328830655
0.01458566147
0.01585260453
0.01708211889
0.01826964408
0.01941298158
0.02051136853
0.02156596961
0.02257966747
0.02355537465
0.0244992891
0.02541362144
0.02630257287
0.02716923828
0.02800958179
0.0288191476
0.0295970257
0.03033181061
0.03100112137
0.03157160254
0.03199787248
0.03221091176
0.03215622748
0.03220258731
0.03242805337
0.03274355567
0.03302103333
0.03328832727
0.03370706738
0.03415068508
0.03465483808
0.03517932111
0.03598863575
0.03658175563
0.03625812535
0.08329856312
0.01298724174
0.01021565238
0.006581547053
0.004955176523
0.004126851825
0.003822928258
0.004001743083
0.004665838825
0.005595532663
0.006681844687
0.007864966536
0.009109332066
0.01038764843
0.01167731332
0.01296077463
0.01422473918
0.01545928917
0.01665748121
0.01781481511
0.01892897122
0.01999926036
0.02102622407
0.02201258763
0.02296217409
0.02387993896
0.02476938671
0.02563703872
0.02648510724
0.02731355547
0.02811806559
0.02889588425
0.02963785781
0.03031221966
0.03088535316
0.03134627945
0.03167521329
0.03187756401
0.03205509344
0.03224096343
0.03242224842
0.03246428187
0.03246261937
0.03271515433
0.0330615624
0.033499408
0.03397723359
0.03473842408
0.03541023722
0.03505480636
0.08221301805
0.01298718425
0.01021513417
0.006580948266
0.00495421668
0.004125387509
0.003820895503
0.003978740321
0.004619733686
0.005530160511
0.006596942315
0.0077602357
0.008984995854
0.01024423029
0.01151537822
0.01278095232
0.01402755916
0.01524529023
0.01642690225
0.01756783096
0.01866534584
0.01971885207
0.0207288145
0.02169831982
0.02262957408
0.02352881913
0.02440140695
0.02525426239
0.02609358769
0.0269343443
0.0277595668
0.02856112451
0.02932126193
0.03000438675
0.03057784856
0.03104090332
0.03140035724
0.03168289446
0.0319034378
0.03206054203
0.03216664267
0.03212043232
0.0320373607
0.03215904822
0.03244809612
0.03283875812
0.03328187117
0.0340177173
0.03473913578
0.03439622905
0.08159510578
0.01298712529
0.01021502816
0.006580783709
0.004953950428
0.004124981073
0.00382032876
0.003977013189
0.004604003369
0.005495433358
0.006547407901
0.007694432
0.008902191202
0.01014397919
0.01139738875
0.01264505403
0.01387359294
0.01507312211
0.01623617483
0.01735808894
0.0184357114
0.0194681666
0.02045598718
0.02140349014
0.0223144464
0.02319559998
0.02404979195
0.02488657661
0.02572214314
0.02656349598
0.02739501141
0.02820577761
0.02897339677
0.02965768789
0.03023299919
0.03069707283
0.03105058271
0.03130667885
0.03148022791
0.03156930643
0.03160086495
0.03151368915
0.0313720462
0.03146784289
0.03169571628
0.03203117156
0.03240880044
0.03306623921
0.03386717007
0.03337804848
0.0805783359
0.01298706713
0.01021493703
0.006580710015
0.004953880296
0.004124899064
0.003820211581
0.003975393576
0.004600955749
0.00547614924
0.006521449911
0.007661267747
0.008862234112
0.01009749041
0.01134453477
0.01258582544
0.0138079107
0.01500057291
0.01615612242
0.01726932081
0.01833708241
0.01935961398
0.02033820751
0.0212774411
0.02218088051
0.0230532655
0.02389907767
0.02473082506
0.02556071985
0.02639703718
0.02723168067
0.02804488084
0.02880834335
0.02948449801
0.03003534329
0.03046810597
0.0308170768
0.03111334499
0.03131277722
0.03136237462
0.03139086975
0.03131861028
0.03129409364
0.03142374098
0.03158782322
0.03187364251
0.03224560804
0.03288045007
0.0336941833
0.03324034387
0.08045370457
0.01298700874
0.01021489089
0.006580649268
0.004953807666
0.004124804325
0.00382009039
0.003974899657
0.004600224303
0.005475548431
0.006520656559
0.007659698595
0.008859595716
0.01009333132
0.01133851632
0.01257733627
0.01379624298
0.01498451068
0.0161342717
0.01724037302
0.01830052714
0.01931589045
0.02028603973
0.02121140765
0.02209463109
0.02294236538
0.02376109205
0.02457086113
0.02538568647
0.02622083028
0.02706197627
0.02789067296
0.02866814978
0.02936192093
0.02992317896
0.03033316838
0.03060177886
0.03073518019
0.03085263613
0.03090717641
0.03095929087
0.03100121656
0.03111564867
0.03126074051
0.03143266621
0.03172061233
0.03209223362
0.0325980963
0.03342438148
0.03263553581
0.07972039981
0.01298695708
0.01021483267
0.006580599702
0.004953761659
0.004124749726
0.003820019012
0.003973999415
0.004598636042
0.005473751766
0.00651841202
0.007657183235
0.008856997604
0.01009066458
0.01133578954
0.01257393244
0.01379182538
0.01497718098
0.0161234612
0.01722472412
0.01828140584
0.01928837418
0.02024528617
0.02114292681
0.02198921403
0.02278687855
0.02356188293
0.02432845249
0.02512314277
0.02596329602
0.02681850344
0.02765735714
0.02843643137
0.02911385035
0.02971560776
0.03027362358
0.0308526636
0.0311788764
0.03124818463
0.03150345825
0.03164288302
0.03174236195
0.03180647775
0.03190409257
0.03204279585
0.03229949415
0.0326308309
0.03327449404
0.03402707299
0.03359270201
0.08078409896
0.01298690789
0.01021480948
0.006580567575
0.00495372431
0.004124699506
0.003819953827
0.003973645469
0.004597979951
0.005473322142
0.006517812611
0.007656571627
0.008855682557
0.01008858098
0.01133235361
0.01256887062
0.01378331663
0.01496495522
0.01610571513
0.017202587
0.01824862224
0.01923805363
0.0201595031
0.02100940131
0.02177428056
0.0224717993
0.02311812317
0.02378208551
0.02453005731
0.02541184927
0.0263679473
0.02733034608
0.02821819452
0.02900208115
0.02953620649
0.02998995757
0.02879852589
0.02813876843
0.02791770948
0.02784578868
0.02800882007
0.0282284797
0.02845005481
0.02867707911
0.02891090284
0.02927081871
0.02969636967
0.03024535038
0.03109260786
0.03030007104
0.07747788217
0.01298686659
0.01021475171
0.006580518634
0.004953678235
0.004124652406
0.003819893637
0.003973168203
0.004597245577
0.00547265995
0.006516913911
0.007655199866
0.008854035182
0.01008659575
0.0113297152
0.01256488748
0.01377707226
0.01495482348
0.01609296915
0.01718405326
0.01821941356
0.01918181718
0.02005587242
0.02082016024
0.02145449127
0.02195010188
0.02239719879
0.02288836552
0.02344882809
0.02426301102
0.02520358278
0.02622227487
0.02713999284
0.02798783685
0.02868236425
0.02964508602
0.03077205892
0.03053615409
0.02897688609
0.02843703278
0.02863678563
0.02876802477
0.02876174951
0.028723122
0.02888195977
0.02918825776
0.02957204149
0.03008651559
0.03090344957
0.03018809243
0.07741064008
0.01298683159
0.01021470986
0.006580478431
0.004953637126
0.004124609947
0.003819839728
0.003972923807
0.004596977248
0.005472688504
0.006516864876
0.007654936532
0.008853364058
0.01008530347
0.01132746304
0.01256101511
0.01376979494
0.0149429446
0.01607251578
0.01715398573
0.01817260529
0.01910036521
0.01990588291
0.02053896772
0.02100217703
0.021506432
0.0220525313
0.02263880829
0.02308863418
0.02409660915
0.02508055127
0.02636406035
0.02756895716
0.02851573673
0.02931435376
0.02964871719
0.03203433124
0.03468716889
0.03462057524
0.03560484084
0.03659293015
0.03702035106
0.03694370536
0.03672758203
0.03652040729
0.03649402997
0.03650876793
0.03681483921
0.03705170857
0.03685365654
0.08364953609
0.0129868064
0.01021467524
0.006580448611
0.004953608823
0.004124583967
0.003819805421
0.003972697316
0.004596778959
0.00547262532
0.006516942115
0.007654782641
0.008852913351
0.01008446507
0.01132596478
0.01255827641
0.01376464685
0.0149332127
0.01605420181
0.0171215406
0.01811812601
0.01900443522
0.01972609651
0.02020723918
0.02072556392
0.02129780645
0.02194924925
0.02274057774
0.02216600799
0.02297600286
0.02217948806
0.02300223279
0.02434466914
0.02564750743
0.02641530521
0.02744770919
0.02879406735
0.02925089908
0.0288544025
0.03016160366
0.03120905564
0.03180419202
0.03186525031
0.03159880745
0.031103774
0.0312331826
0.03142598464
0.03187107436
0.03254308872
0.03233085349
0.07968709071
0.01298679033
0.0102146563
0.006580430459
0.00495359063
0.00412456568
0.003819782906
0.003972597848
0.004596801144
0.005472761007
0.006517730774
0.007655605435
0.00885352264
0.01008471577
0.01132559956
0.01255687014
0.01376119008
0.01492653303
0.01604078503
0.01709438034
0.01807354648
0.01892076916
0.019573153
0.02001770803
0.02057487364
0.02128394073
0.02217991176
0.02310471214
0.02355834937
0.02408139247
0.02304512899
0.02422679267
0.02689705837
0.02968298488
0.0306309153
0.03098738704
0.03027880282
0.02962738589
0.03011825422
0.03168763172
0.0332238304
0.03430749963
0.03487228916
0.03462013121
0.0339422507
0.03396577096
0.03398321669
0.03428239046
0.03482288833
0.03419117418
0.08122678771
0.01298678497
0.01021465087
0.006580425798
0.004953586194
0.004124561797
0.003819778186
0.003972558411
0.004596781295
0.005472697664
0.006517983073
0.007655907641
0.008853738853
0.01008479493
0.01132545197
0.01255645524
0.01375980601
0.01492436011
0.01603331405
0.01708367042
0.01804379399
0.01886701678
0.01944118773
0.01985200116
0.02042777476
0.02122829812
0.02194814739
0.02269250521
0.02372417968
0.02321573956
0.02516351093
0.02985283179
0.03715587005
0.04411558197
0.04437548109
0.04396415621
0.04364548093
0.04180997289
0.04070856479
0.0404656799
0.0415805762
0.04284007515
0.04347073422
0.04339190649
0.04299095511
0.04314115048
0.04331908231
0.04375712117
0.04409260248
0.04370583435
0.08975557976
0.01298678981
0.01021466536
0.006580437101
0.004953595461
0.004124570062
0.003819787607
0.003972597939
0.004596733016
0.005472698315
0.006517432184
0.007655275942
0.00885321123
0.01008441749
0.01132531633
0.01255659893
0.01376094042
0.01492623309
0.01604055064
0.0170941247
0.01807331461
0.0189204002
0.01957268549
0.02001976327
0.02057655963
0.02128556737
0.02218176323
0.0231061496
0.02355665752
0.02470976059
0.02629475654
0.03458446647
0.04971216723
0.06502496047
0.06044558315
0.05691663199
0.05789283447
0.05143096274
0.04829282887
0.04629894452
0.04473244873
0.04400801903
0.04365597397
0.04281003257
0.04176088982
0.04144831794
0.04120513933
0.04126895365
0.04147858588
0.04036223183
0.08669651863
0.01298680534
0.01021468705
0.006580457404
0.004953615393
0.004124589815
0.003819812697
0.00397271735
0.004596745774
0.005472579991
0.00651680032
0.007654674325
0.008852845894
0.01008442869
0.01132595583
0.01255828502
0.0137646844
0.01493323136
0.01605437992
0.0171217559
0.01811826876
0.019004609
0.01972610397
0.02020756239
0.02072536555
0.0212960763
0.02194651155
0.02273949973
0.0221706684
0.0235099183
0.02808307236
0.04313734004
0.07018548151
0.1279031163
0.1115751308
0.09888235021
0.09225542545
0.07897984968
0.06794144075
0.0614552687
0.05752087876
0.05376440118
0.05096013657
0.04866799155
0.04669354975
0.04540174938
0.04441490916
0.04377613135
0.0436513596
0.04182647755
0.08858214034
0.01298683057
0.01021471924
0.006580485338
0.004953644481
0.004124618687
0.003819850695
0.003972941845
0.004596956059
0.005472605186
0.006516792657
0.007654908506
0.008853361893
0.01008531602
0.01132748541
0.01256104482
0.01376983541
0.01494299961
0.0160726974
0.01715403895
0.01817265104
0.01910050354
0.0199056804
0.02053851761
0.0210009859
0.02150222336
0.02204609796
0.0226354337
0.02338060034
0.02570843033
0.03305581593
0.05070236112
0.08442443041
0.1659072587
0.1764727462
0.1709368809
0.172496546
0.1667992841
0.1467355468
0.1370114696
0.132961855
0.1289609279
0.1257493264
0.1235789838
0.1216663349
0.1201102389
0.1187557352
0.117713155
0.1171881042
0.1100096335
0.15386928
0.01298686466
0.01021476298
0.0065805268
0.004953687022
0.004124661681
0.003819906935
0.003973211506
0.004597287922
0.005472667039
0.006516992616
0.007655333486
0.008854200441
0.01008678429
0.01132991615
0.01256510363
0.01377728363
0.01495504286
0.01609320746
0.01718448894
0.0182195811
0.01918245174
0.0200561615
0.0208207666
0.02145590858
0.0219557819
0.02240640941
0.02289766242
0.02362571962
0.02566532076
0.03154503048
0.04634658007
0.07261896069
0.129532949
0.1139255313
0.101004176
0.09304803138
0.0808176155
0.06941960805
0.06188837275
0.05765696182
0.05472977125
0.05275458579
0.05126509444
0.05012505223
0.0492959272
0.04879756106
0.048739554
0.04871289785
0.04732282636
0.09480481689
0.01298690595
0.01021481008
0.006580568294
0.004953726493
0.004124704767
0.003819963114
0.003973670432
0.004598051499
0.00547334494
0.006517867367
0.007656657518
0.008855782436
0.01008868187
0.01133245087
0.01256896375
0.01378340203
0.0149650486
0.01610578503
0.01720284521
0.01824885391
0.01923877075
0.02016005819
0.02101214704
0.02178574529
0.02249334404
0.0231298109
0.0238078508
0.02461586191
0.02616165218
0.02964203297
0.03811383558
0.05270711657
0.06711566377
0.06252983545
0.05809930076
0.0549772999
0.05043637065
0.04687608975
0.04428984109
0.0427994084
0.0416978952
0.04083551266
0.04017122386
0.03966940428
0.03937994682
0.03927411409
0.03943296456
0.03994206983
0.03878102121
0.08555795113
0.01298695384
0.01021482701
0.006580596476
0.004953760804
0.004124754299
0.003820029641
0.003974073387
0.00459879149
0.005473894456
0.00651861089
0.007657419831
0.008857253095
0.01009093426
0.01133607676
0.01257424364
0.01379213752
0.01497753822
0.01612373055
0.01722523678
0.01828210488
0.01928942321
0.02024692097
0.02115030325
0.02200852966
0.02281881787
0.02359721572
0.02436634835
0.02516500544
0.0262000593
0.0279557546
0.03169462542
0.03798646581
0.04372140992
0.04208285228
0.04049078953
0.03925308092
0.03766040995
0.03623323301
0.03550616496
0.03499372718
0.03463199852
0.0343538836
0.03416379783
0.03405243185
0.03415557285
0.03437213733
0.03474921724
0.03546808174
0.0343868894
0.08126851851
0.01298700558
0.01021488462
0.006580646036
0.004953807815
0.004124809057
0.003820100352
0.003974936485
0.004600299006
0.0054755907
0.006520742019
0.007659805505
0.008859701529
0.0100934168
0.01133859627
0.01257738094
0.01379627334
0.01498451649
0.01613428247
0.01724035518
0.01830064721
0.01931600436
0.02028694015
0.02121493505
0.02210331605
0.02295479758
0.02377434182
0.02458187076
0.0253956915
0.02625855377
0.02732798695
0.02895476885
0.03140613631
0.03370481575
0.03372026329
0.03326130559
0.03291355539
0.03254828104
0.03230780893
0.03220335723
0.03215923999
0.03212448126
0.0321813071
0.03228322862
0.03242521486
0.0326796413
0.03302411337
0.0335938705
0.0343957736
0.03374785388
0.0808684423
0.01298706293
0.0102149236
0.006580700138
0.004953875071
0.004124898197
0.003820216863
0.00397548914
0.004601138943
0.005476321363
0.00652170564
0.007661565612
0.008862573939
0.01009788155
0.01134499694
0.01258636196
0.0138085354
0.01500129225
0.01615694515
0.01727025606
0.0183381559
0.01936079843
0.02033943605
0.02127855395
0.0221823365
0.02305415924
0.02389913224
0.02472936623
0.02555980767
0.02639931545
0.02727482853
0.02823960422
0.02937732425
0.03044074859
0.03088425243
0.03080701545
0.0307396007
0.03072342451
0.03075860664
0.03081766741
0.03091046021
0.0308953737
0.03092005861
0.03109143876
0.03129237313
0.03161160252
0.03201447268
0.03265827336
0.03349625912
0.03305117522
0.08026867139
0.01298712095
0.01021500138
0.006580766952
0.004953942975
0.004124983473
0.003820342583
0.003977144324
0.004604144245
0.005495538883
0.006547574224
0.007694592168
0.008902292345
0.0101440087
0.01139735026
0.01264495452
0.01387344146
0.01507293665
0.01623596594
0.0173578751
0.01843552115
0.01946800928
0.0204558274
0.02140337149
0.02231442809
0.02319548382
0.02404911879
0.02488537759
0.02572062142
0.02656170967
0.02739583414
0.02822556351
0.0290565437
0.02981838006
0.0303884778
0.03078096044
0.03109044715
0.03133558989
0.03151752208
0.03162204524
0.03167261083
0.03158907656
0.03146642699
0.03159791647
0.03186111099
0.03224306403
0.03266152462
0.0333771956
0.03414955951
0.03375997044
0.0809760745
0.01298717901
0.01021509379
0.006580919616
0.004954195495
0.00412537342
0.003820885906
0.003978552694
0.004619501086
0.005529990975
0.006596885139
0.007760246998
0.008985088362
0.01024444026
0.01151572217
0.01278145001
0.01402822813
0.01524616514
0.01642796974
0.01756908067
0.01866671082
0.0197202495
0.02073007836
0.02169904257
0.02262986891
0.02352825554
0.02439975098
0.02525160634
0.0260897164
0.02692998617
0.02775540819
0.02855920223
0.02932647365
0.03001720767
0.03058715111
0.03103648074
0.03137962297
0.03164503298
0.031857329
0.03201142973
0.03212122067
0.03208508474
0.03201886078
0.0321626387
0.03247175213
0.032888167
0.03335464162
0.0341118377
0.03482528025
0.03451355539
0.08170519362
0.01298723637
0.01021561936
0.006581525549
0.004955163792
0.004126847399
0.003822925193
0.004001904428
0.004666255008
0.005596123453
0.006682917158
0.007866088286
0.009110287255
0.0103884418
0.01167796937
0.01296130946
0.01422515294
0.01545960335
0.01665762085
0.01781470821
0.01892845417
0.01999827268
0.02102501612
0.02201124177
0.02296043256
0.02387738745
0.02476761463
0.02563443932
0.02648184838
0.02731054377
0.02811332256
0.02889175913
0.02963494335
0.03031169177
0.03088846429
0.03135415595
0.03169658705
0.03191300501
0.03210139144
0.03229593694
0.03248411539
0.03253264949
0.0325385796
0.03275179862
0.03310811922
0.03356433742
0.03406340805
0.03484983618
0.03551183497
0.03521369631
0.08238050792
0.01298730142
0.01021817135
0.00658434476
0.004959513471
0.004133280741
0.003848723525
0.004058436044
0.00474989697
0.005712230739
0.006832663248
0.008051214429
0.009331054972
0.01064489084
0.01196981505
0.01328785052
0.01458549606
0.01585263216
0.01708222509
0.01826979016
0.01941314823
0.02051180545
0.0215665403
0.02258074137
0.02355711083
0.02450035906
0.02541518212
0.02630492433
0.02717261298
0.02801221596
0.02882399117
0.02960161101
0.0303372752
0.03100776274
0.0315805212
0.03201034221
0.03222469551
0.03217043733
0.032216459
0.0324426907
0.03276056177
0.03304444373
0.03332073756
0.03372370941
0.03417531635
0.03469659537
0.03523485571
0.03605945514
0.0366461135
0.03634921092
0.08338459642
0.0129874082
0.01023152556
0.006596767164
0.004975871352
0.004189572304
0.003937613578
0.004196910626
0.004936817285
0.005945851083
0.007110689981
0.00837028899
0.009689311418
0.01103822986
0.01239521982
0.01374114699
0.01506248863
0.01634983873
0.01759677411
0.0187992904
0.01995565114
0.02106538549
0.02213069354
0.02315388704
0.0241381354
0.02509141922
0.02601024467
0.02690953345
0.02777792857
0.02862472123
0.02944881536
0.03023511551
0.03097480535
0.03165134941
0.03221429019
0.03254211265
0.03244309366
0.03238012315
0.03239800223
0.0324916096
0.03288992664
0.03343504342
0.03403183656
0.03465753648
0.03529230633
0.03596008031
0.03659999702
0.03747740446
0.03807151568
0.03773724971
0.08451943247
0.01298881494
0.01028658378
0.006646051105
0.005059080678
0.004323169572
0.004104447708
0.004497270833
0.005350220384
0.006465261311
0.007732761646
0.009091672095
0.01050242977
0.01193451284
0.01336199712
0.01476843794
0.01614033825
0.01746811796
0.01874603216
0.01997223088
0.02114581911
0.02226763182
0.02334067937
0.02436718798
0.02535159135
0.02630133596
0.02721739078
0.02810763926
0.02897198449
0.02981018669
0.03062510076
0.03140807744
0.0321513288
0.03283771741
0.03339086169
0.03355176704
0.0333983303
0.03319929888
0.03314542593
0.03321804906
0.03358414025
0.03428462239
0.03508131639
0.03591108244
0.03673785553
0.03757721456
0.03836779037
0.03932949493
0.03999503424
0.03957086609
0.08576281514
0.013006958
0.01050253746
0.007004057192
0.005418955204
0.004708800994
0.004694829676
0.005308867766
0.00630097415
0.007515590212
0.00886368036
0.0102881226
0.0117478989
0.01321211989
0.01465777882
0.01606811946
0.01743250384
0.0187439457
0.01999849977
0.02119329245
0.02232962183
0.02341046549
0.02444109795
0.02542390293
0.02636621745
0.02727195886
0.02814748421
0.02899635711
0.02982296763
0.03063021896
0.0314178438
0.03218520779
0.03292149079
0.03362548026
0.0342339177
0.03463495595
0.03450083821
0.03429106272
0.03425917703
0.03437007341
0.03466326807
0.03558519558
0.03669564495
0.03787632296
0.03905853616
0.04025550755
0.04138582531
0.04268830747
0.04350342528
0.04257124285
0.0879651399
0.01309531579
0.009722205472
0.007202550753
0.006111862236
0.005903575117
0.006315783655
0.007184183633
0.00838893998
0.009834546504
0.01144185532
0.01314615472
0.01489604564
0.01665158361
0.01838234278
0.02006640364
0.02168879667
0.02324023428
0.02471580131
0.02611381784
0.02743564715
0.02868313831
0.02986266834
0.0309814597
0.03204821532
0.03306628915
0.03404988124
0.03499271179
0.03591537896
0.03680956762
0.03768330028
0.03854427375
0.03939224186
0.0402453429
0.04101281907
0.04149491736
0.04126906363
0.04102101628
0.04096296477
0.0410893715
0.04165606548
0.04290839427
0.04435577485
0.04586255387
0.0473630699
0.04885675744
0.05029561569
0.0517773388
0.05257568805
0.05390090205
0.0994315543
0.01361569873
0.008933449603
0.007385514088
0.007157547366
0.007792141889
0.009076097669
0.01084329692
0.01295062337
0.01527338498
0.01771203015
0.02019044289
0.02265272172
0.02505854625
0.02737861744
0.02959609211
0.03170351091
0.03369844979
0.0355812987
0.03735809165
0.03903868016
0.04063247223
0.04214997092
0.04360341414
0.04500356433
0.04636029417
0.04768563245
0.04899315574
0.05028413212
0.05158921149
0.05294609008
0.05454036673
0.05667955878
0.05951986292
0.06241491755
0.0633457745
0.06357194004
0.06397651072
0.06456727497
0.06537763273
0.06653744991
0.06818254932
0.07005537742
0.07204725469
0.07410853024
0.07624085936
0.07841009994
0.08070888304
0.0827454772
0.08621487301
0.1324504153
0.01307037525
0.007639182016
0.00513128045
0.004187124721
0.004034366097
0.004401932542
0.005147400233
0.006181200647
0.007433405401
0.00884552086
0.01036807902
0.01195875161
0.01358171431
0.0152075986
0.01681277266
0.01837858163
0.01989128586
0.02134087691
0.02272176524
0.02403032987
0.02526706178
0.02643210582
0.02752900173
0.02856098597
0.02953279976
0.03044758218
0.03132021183
0.03213811095
0.03300475709
0.03413046991
0.03609854696
0.03964785369
0.0451787011
0.0512540476
0.05119955136
0.04946567022
0.04783452968
0.04628705791
0.04508171345
0.04412164009
0.0434178772
0.04294026791
0.04263890437
0.04247633123
0.04242440864
0.04246645402
0.04259490027
0.04312962376
0.0440003071
0.08990529716
0.01226608047
0.007195075238
0.004661792941
0.003202016006
0.002346051185
0.001807972919
0.001450772606
0.001204017768
0.001028829096
0.0009023683089
0.0008104990259
0.0007440375611
0.0006967327281
0.000664153081
0.0006430566113
0.0006310194581
0.000626128991
0.0006269156065
0.000632240575
0.0006411400569
0.0006532175839
0.0006680632561
0.0006858412101
0.0007068116903
0.0007311201286
0.0007595921946
0.0007916511119
0.0008288812159
0.0008710246627
0.0009254692553
0.00100587312
0.001140656875
0.001356128704
0.001608658223
0.001602447305
0.001568686981
0.001535437682
0.001506525351
0.001506082782
0.001526769949
0.00156859503
0.001628283993
0.001702223788
0.001784898479
0.001873140904
0.001964375564
0.002038696951
0.00503425824
0.004817171162
0.01147422484
0.01212328325
0.007184776685
0.004667307849
0.003212316825
0.002354590071
0.001811910271
0.00144862998
0.001194487329
0.001010491133
0.0008737426028
0.0007701373463
0.0006906113688
0.0006291259346
0.0005815542714
0.0005449789713
0.0005173116708
0.0004969681703
0.0004829098984
0.0004742869852
0.0004706364047
0.0004715603691
0.0004768268158
0.0004864044341
0.0005003271799
0.000518734849
0.000541855494
0.0005700326492
0.000603130214
0.0006412507105
0.0006837199193
0.0007293805282
0.0007754185222
0.0008183340533
0.0008526838
0.0008737688217
0.0008616100719
0.0008204392757
0.000806695065
0.0008426682597
0.0009049855667
0.0009832155717
0.001073705701
0.00117505279
0.001282843481
0.00139600087
0.00151467493
0.001630011937
0.004517377127
0.004311420534
0.007502427977
0.01213152758
0.007235542966
0.004716255611
0.003221078592
0.002360754774
0.00181452645
0.001449141505
0.001193725798
0.001009006463
0.0008719231144
0.0007682599712
0.0006889055659
0.0006277908752
0.0005807164773
0.0005447339121
0.0005177323732
0.0004981679888
0.0004848785215
0.0004770371305
0.0004740735068
0.0004756446848
0.0004815042299
0.0004915949718
0.0005060136835
0.000524990188
0.0005487423081
0.0005776504277
0.0006117070932
0.0006507660504
0.0006941990652
0.0007396254887
0.0007836170546
0.0008210838491
0.0008453507544
0.0008468665082
0.0008066823164
0.0007703011031
0.000737213449
0.0007253234156
0.0007453169841
0.000782334644
0.0008302618218
0.0008860837946
0.0009467249976
0.001011117197
0.001081774276
0.001668926493
0.006927312658
0.006588052806
0.009451137111
0.0121689312
0.007321271148
0.004718669196
0.003204728884
0.002351239871
0.001807615955
0.001443184994
0.001188238345
0.001003508386
0.000865982937
0.0007614821623
0.0006809358071
0.0006183061019
0.0005694532371
0.0005314543543
0.0005022129061
0.0004802144435
0.0004643415316
0.0004537892703
0.000447997888
0.0004465992386
0.0004494121787
0.0004563857147
0.0004675996398
0.0004833704998
0.0005038173225
0.0005294914355
0.0005600696583
0.0005954815232
0.0006341105951
0.0006746001564
0.0007128815355
0.000743330288
0.0007598079173
0.0007562625324
0.0007245246389
0.0006931648544
0.0006648719521
0.0006456592834
0.0006434197531
0.0006541524996
0.0006755690701
0.0007062565058
0.0007435150736
0.0007896815009
0.00139379846
0.002327712243
0.007258243526
0.006838295222
0.009580322294
0.01216895766
0.007320530367
0.004718865722
0.003203426657
0.002350467706
0.001804192778
0.001440267077
0.001185657552
0.001001120399
0.0008637060948
0.0007592904227
0.0006788148961
0.0006162611638
0.0005674882788
0.0005295721771
0.0005004151797
0.0004784916579
0.0004626713484
0.0004521151821
0.0004462334462
0.0004446356556
0.0004471180923
0.0004536572523
0.000464382451
0.0004795976741
0.0004993840831
0.0005244493585
0.0005544024535
0.000543851024
0.0005859677674
0.0007329785678
0.000832193527
0.0008541154238
0.0008569328331
0.0008456117156
0.0008092394701
0.0007733451935
0.0007407924844
0.0007115354488
0.0006849345684
0.0006572436992
0.000632798687
0.0006334498978
0.0006972197287
0.0009511135765
0.002003494026
0.002816784718
0.007440498475
0.007006113666