/*--------------------------------*- C++ -*----------------------------------*\
| =========                 |                                                 |
| \\      /  F ield         | OpenFOAM: The Open Source CFD Toolbox           |
|  \\    /   O peration     | Version:  2.2.1                                 |
|   \\  /    A nd           | Web:      www.OpenFOAM.org                      |
|    \\/     M anipulation  |                                                 |
\*---------------------------------------------------------------------------*/
FoamFile
{
    version     2.0;
    format      ascii;
    class       volScalarField;
    location    "10";
    object      nut;
}
// * * * * * * * * * * * * * * * * * * * * * * * * * * * * * * * * * * * * * //

dimensions      [0 2 -1 0 0 0 0];

internalField   nonuniform List<scalar> 
86889
(
0.0001421796514
0.0001448194684
0.0001846334974
0.0002644863518
0.0004024962979
0.0006076399854
0.000868332556
0.00116221449
0.001469639884
0.001778826997
0.002084198207
0.002383377084
0.002675317361
0.00295950677
0.003235869505
0.003504526457
0.003765713799
0.004019728007
0.004267043481
0.004508238039
0.004743886272
0.004974673304
0.005201251607
0.005424362487
0.005644788425
0.005863341872
0.006080935422
0.006298237965
0.006516213218
0.006735733877
0.006956173153
0.007179224945
0.007408344704
0.007650000632
0.007900157142
0.008163271316
0.008438675587
0.008730946547
0.00903862838
0.009353937656
0.009669250279
0.009989960506
0.01031932154
0.01065988034
0.01101237834
0.01137992155
0.01175677839
0.01219748721
0.01250664578
0.01246726992
0.0001394738016
0.0001692663365
0.0001772319178
0.0002083892126
0.0002740467326
0.0003853840967
0.000544452246
0.0007412997695
0.0009606823237
0.001189911213
0.001421294303
0.001650922924
0.001876921465
0.002098343315
0.002314664173
0.002525553295
0.002730837395
0.002930391059
0.003124253245
0.003312444143
0.003495119892
0.003672470682
0.003844867936
0.004012694843
0.00417633185
0.004336266014
0.004492751234
0.004646470631
0.004797582739
0.004946665936
0.005094011711
0.005240058529
0.005384925129
0.005528491022
0.005668968387
0.005813142081
0.005974481638
0.006166423761
0.006370971813
0.006581406275
0.006794557838
0.007010761665
0.007230905736
0.007455021935
0.007682910708
0.00791428014
0.008148637147
0.008384687369
0.008402058995
0.009711430973
0.0001388967468
0.0001924378411
0.0001708948771
0.0001737605091
0.0001975345511
0.000258212589
0.0003735830898
0.0005317399297
0.0007145763176
0.0009083108462
0.001105062929
0.001300897913
0.001493944955
0.001683299929
0.001868495082
0.002049272569
0.002225511071
0.002397155332
0.002564186415
0.002726649564
0.002884741151
0.003038664415
0.00318862366
0.003334887343
0.003477747196
0.003617523824
0.003754523094
0.003889075588
0.00402150221
0.004152061377
0.004280986137
0.004408397114
0.00453420472
0.00465840085
0.004779846074
0.004903111733
0.005036153936
0.005199351122
0.005371925771
0.005546500273
0.005721862627
0.005897903834
0.006075814409
0.006255982456
0.006438474134
0.006623184724
0.00681093147
0.00701131737
0.006665463874
0.008299225132
0.0001387576832
0.0001858749675
0.0001597087647
0.0001592210722
0.0001774334781
0.0002182356718
0.0003092972243
0.0004525838936
0.0006293632177
0.0008228780754
0.001023042728
0.001224667557
0.001425109077
0.001622907571
0.001817327146
0.002007944655
0.002194446367
0.00237664049
0.002554475003
0.002727958799
0.002897147107
0.003062164372
0.003223137492
0.003380295917
0.003533905467
0.003684248759
0.003831636051
0.003976306299
0.004118566885
0.004258570003
0.004396380552
0.004531858549
0.004664671199
0.004793818861
0.004917440481
0.00503895134
0.005148908566
0.005275097626
0.005410016753
0.005541619589
0.005668416494
0.005795154785
0.005923484649
0.006053973441
0.006186506636
0.00632165829
0.006459272892
0.006623570017
0.006310662437
0.007983392106
0.0001387562264
0.000184227907
0.0001579882822
0.0001558517131
0.0001706222258
0.0002074637591
0.000285165047
0.00041690496
0.0005852285693
0.000773167703
0.0009697636736
0.001169274472
0.001368568835
0.001566033864
0.001760758767
0.00195219384
0.002140012246
0.002324009461
0.00250405259
0.002680081757
0.002852092267
0.003020179461
0.003184451754
0.003345078432
0.003502338036
0.003656470248
0.003807787027
0.003956376325
0.00410263455
0.004246568989
0.00438804082
0.004526850837
0.004662549143
0.004794291486
0.004920855734
0.005043112515
0.005158444046
0.005275804349
0.005394383049
0.005505874233
0.005613836675
0.005721076671
0.00582884193
0.005937812947
0.006047836853
0.006162442264
0.006282548699
0.006439000179
0.006122810973
0.007796444728
0.0001387546973
0.0001838300387
0.0001575197155
0.0001551055531
0.0001677797317
0.00020173027
0.0002740670809
0.0004002856953
0.0005639855303
0.0007485232869
0.0009426721444
0.001140326958
0.001338230572
0.001534607291
0.00172848309
0.001919296081
0.002106684324
0.002290406709
0.002470303521
0.002646295278
0.002818352367
0.002986521537
0.003150927752
0.003311718956
0.003469181886
0.003623511725
0.003774987282
0.003923857316
0.004070156613
0.004213674679
0.004354941981
0.004494320468
0.004630880128
0.004763424677
0.004891197242
0.005013963963
0.005129626634
0.005241731043
0.005350642128
0.005457183079
0.005548506445
0.005630795708
0.005731133948
0.005831183571
0.005931657814
0.00603887325
0.006152761536
0.006304691969
0.005988994944
0.007662191145
0.0001387541018
0.0001837548866
0.0001574117899
0.0001549073957
0.0001674299026
0.0002001033593
0.0002695404928
0.0003924509205
0.0005523152122
0.0007330666037
0.0009235942761
0.001117767411
0.001312270562
0.00150528934
0.001695843324
0.001883368901
0.002067505998
0.002248018504
0.002424751328
0.002597622516
0.002766605005
0.002931721136
0.003093082168
0.003250862925
0.003405305951
0.003556639368
0.003705212192
0.00385128055
0.003995138952
0.004137151548
0.004277542689
0.004417051814
0.0045541904
0.004687236532
0.004815819284
0.004938652654
0.005053362688
0.005163935277
0.005272286711
0.005378455336
0.005455074046
0.005512972515
0.005602957592
0.005701670429
0.005800787139
0.005907483896
0.006019243927
0.00616682281
0.005855182629
0.007536130353
0.000138753691
0.0001837402313
0.0001573880623
0.000154861709
0.0001673467815
0.0001999673408
0.0002676901475
0.000387994472
0.0005452626591
0.0007233680989
0.000911261859
0.00110286083
0.001294859271
0.00148543428
0.001673603356
0.001858793732
0.002040643895
0.002218900549
0.002393401853
0.002564042353
0.002730790626
0.002893657452
0.003052758516
0.00320820705
0.003360267953
0.003509229388
0.00365545667
0.00379949914
0.003942789928
0.004085590549
0.004227277829
0.004368119093
0.004506419815
0.00464034165
0.004769632598
0.004893297993
0.005009929437
0.005121853372
0.005230503359
0.005336292929
0.005412326062
0.005468935682
0.005547630267
0.005646304945
0.005744787059
0.005850752981
0.005960207993
0.006104009099
0.005790565701
0.007468605874
0.0001387532748
0.0001837390741
0.0001573845749
0.0001548538922
0.0001673313505
0.0001999410281
0.0002675625613
0.0003865003661
0.000541492283
0.0007176062969
0.0009033561877
0.001092751154
0.001282513082
0.00147082915
0.001656725308
0.001839630375
0.00201918668
0.002195129965
0.002367295128
0.002535552981
0.002699855466
0.00286020493
0.003016786339
0.003169977852
0.003320077244
0.00346710574
0.00361139478
0.003753934855
0.00389655861
0.00403888758
0.004180284813
0.00432090589
0.004458893071
0.004592472996
0.004721341084
0.004844596336
0.004960545641
0.005071195737
0.005178019175
0.005281782723
0.005355164622
0.005409510135
0.0054943379
0.005593934107
0.005691907357
0.005798040795
0.005906089011
0.006043293782
0.005722366018
0.007368319196
0.0001387528728
0.0001837375183
0.0001573828505
0.0001548516144
0.0001673276805
0.0001999342308
0.0002674162003
0.0003861897955
0.0005393398383
0.0007145060028
0.0008992564989
0.00108769443
0.001276530587
0.001463945329
0.001648954383
0.00183098219
0.002009653794
0.00218469012
0.002355894966
0.002523133223
0.002686421824
0.002845993447
0.003002069737
0.003154976804
0.003305059857
0.003452092348
0.003596345519
0.003738590118
0.003880213883
0.004021747454
0.004162439762
0.004302309372
0.004439483696
0.004572000482
0.004699637298
0.004820967655
0.004936478267
0.005046122949
0.005151584828
0.005253026207
0.005326557853
0.005399192367
0.005490801409
0.00558155761
0.005682765116
0.005788706309
0.005896926556
0.00603273893
0.005708232423
0.007355430079
0.0001387524649
0.000183737826
0.0001573827976
0.0001548513868
0.0001673269924
0.0001999330061
0.0002673837293
0.0003861354876
0.0005393051369
0.0007144661607
0.0008991638816
0.001087529997
0.001276264686
0.001463557474
0.001648407549
0.001830233184
0.002008630653
0.002183307659
0.002354072125
0.002520893991
0.002683996104
0.002843683803
0.00299992999
0.003152560692
0.003302145452
0.003448715002
0.003592582633
0.003734174882
0.003874518036
0.004014414176
0.004153640287
0.004292145823
0.004428530694
0.004561102708
0.00468928931
0.004804538894
0.004901819875
0.004999939612
0.005103995583
0.005202393032
0.00528932772
0.005380652821
0.005470283864
0.005558664231
0.005661331485
0.00576707471
0.005881086361
0.006014909616
0.005687725098
0.007296447841
0.0001387521069
0.0001837372806
0.0001573821892
0.0001548507547
0.0001673258986
0.0001999309806
0.0002673057922
0.0003859788786
0.0005391171833
0.0007142306272
0.0008989047812
0.001087271327
0.001276016552
0.001463330736
0.001648173283
0.001829979504
0.002008258239
0.002182778058
0.002353333221
0.002520281436
0.00268363314
0.002843447324
0.002999388294
0.003151294698
0.003299370887
0.003444787587
0.003587536216
0.003728049893
0.00386750019
0.00400621464
0.00414414219
0.004280857492
0.004415885139
0.004551478502
0.004687035368
0.004798482813
0.004863330704
0.004911349196
0.005020771187
0.005132718787
0.005244501513
0.005350132098
0.00545251329
0.005552297727
0.005659135433
0.005768188969
0.005878319736
0.00601803302
0.00570403329
0.007385425363
0.0001387517654
0.0001837378977
0.0001573825366
0.0001548511131
0.0001673260854
0.0001999311266
0.0002672814959
0.0003859249935
0.0005390896215
0.0007141964866
0.0008988837689
0.00108721168
0.001275918463
0.001463159749
0.001647915097
0.001829530342
0.002007593716
0.002181815031
0.002352314681
0.002519279527
0.002682388835
0.002841231084
0.002995618376
0.00314535537
0.003290045825
0.003430271095
0.003568016655
0.003704061361
0.003840536817
0.003978245164
0.004117368175
0.00425698895
0.00439782596
0.004542008215
0.004694310422
0.004574389025
0.004536352985
0.004537166395
0.004569328016
0.004664406526
0.00476345404
0.004858349171
0.004950216479
0.005039787965
0.005147657283
0.005257947465
0.005376460629
0.005513868716
0.005251972736
0.007012083367
0.0001387514789
0.0001837371618
0.0001573818372
0.0001548503851
0.000167325303
0.0001999297705
0.0002672424903
0.0003858570807
0.0005390278065
0.0007141155507
0.000898767167
0.00108708167
0.001275777404
0.001462993151
0.001647686345
0.001829188688
0.002007050577
0.002181150045
0.002351811686
0.002518917672
0.002681512479
0.002838920481
0.002990701176
0.003136029926
0.003274394412
0.003407572085
0.003538076991
0.003661281871
0.00378776985
0.003916258227
0.004047538707
0.00418230324
0.004325385187
0.004487643081
0.004669213285
0.004695172156
0.004627756623
0.004442550545
0.004423855534
0.00453969251
0.004655453112
0.004738659396
0.004808527712
0.004905318211
0.005020833066
0.005138106372
0.005262929402
0.005405658084
0.005156113903
0.006984113168
0.0001387512359
0.0001837368308
0.0001573814762
0.0001548499875
0.000167325034
0.0001999292284
0.0002672256214
0.0003858385925
0.0005390437322
0.0007141332802
0.0008987776246
0.001087072964
0.001275737964
0.001462904384
0.001647510347
0.001828821049
0.002006416207
0.002180050431
0.002350470175
0.002517152487
0.002678893281
0.002834411075
0.002981844771
0.003121153535
0.003257516067
0.003392323024
0.003526369235
0.003633283792
0.003762702978
0.003853884807
0.003994536054
0.004142795819
0.004301816462
0.00448869303
0.004591390006
0.004817012922
0.004939655589
0.004479452062
0.00463342827
0.004866748789
0.005065635029
0.005193875518
0.00530613635
0.005423432834
0.005558680439
0.005690341744
0.00583108213
0.005991834999
0.005815115442
0.007666439683
0.0001387510612
0.0001837364041
0.000157381074
0.0001548495528
0.0001673246834
0.0001999285423
0.0002672078493
0.0003858230935
0.0005390440799
0.0007141530122
0.0008987854975
0.001087066617
0.001275714186
0.00146284847
0.00164738905
0.001828566604
0.00200590369
0.002179059895
0.002348779782
0.002514421552
0.002674840463
0.002827964502
0.002970357445
0.003109330569
0.003247924514
0.003389189659
0.003539503746
0.003471241616
0.003617658255
0.003502988304
0.003594425315
0.00373129011
0.003881143583
0.004047351833
0.004233414075
0.004299928648
0.004308257898
0.004220597089
0.0043912411
0.004569316678
0.004735548921
0.004854334937
0.004932871857
0.004972889328
0.005100597617
0.005228345932
0.005361847725
0.005515089781
0.005300717466
0.007195883631
0.0001387509495
0.0001837362582
0.0001573809122
0.000154849379
0.0001673245682
0.0001999283486
0.0002672011369
0.0003858292813
0.0005390650444
0.0007142437416
0.0008988910746
0.001087167586
0.001275800888
0.001462904413
0.00164738798
0.001828447824
0.002005596879
0.002178370586
0.002347334631
0.002511996944
0.002670778507
0.002821281443
0.002954907351
0.003094608088
0.003242288655
0.003406795464
0.003561638851
0.003641074045
0.003668349371
0.003469559394
0.003564548844
0.00376662575
0.003999446959
0.004181988763
0.004349317549
0.004307558514
0.004344566385
0.004471954233
0.004644232975
0.004829728437
0.005010786252
0.005178346961
0.005257700448
0.00528729693
0.005419990147
0.005552379759
0.005691173789
0.005849474467
0.005613822506
0.007412826634
0.0001387509124
0.000183736213
0.000157380866
0.0001548493254
0.0001673245461
0.0001999283125
0.0002671980069
0.000385828016
0.0005390596757
0.0007142701184
0.0008989256004
0.001087199291
0.001275826238
0.001462917494
0.001647386487
0.001828390092
0.002005489157
0.002177978958
0.00234671902
0.002510464099
0.002667998561
0.002815449819
0.002941549329
0.003081104935
0.003234891961
0.003364872355
0.003497092267
0.003666732625
0.003607437114
0.003290311537
0.003669311213
0.004257791212
0.004850109545
0.00507688417
0.005252212487
0.005417668828
0.005475877913
0.005606155137
0.005761759555
0.005955677894
0.006157810172
0.006342130401
0.006444036873
0.006505039569
0.006643577506
0.006778584251
0.00692369337
0.007089526729
0.006866034243
0.008463820403
0.0001387509458
0.0001837365238
0.0001573811413
0.0001548495783
0.0001673247745
0.0001999286119
0.0002672009899
0.0003858220616
0.0005390575617
0.000714212231
0.0008988542173
0.001087129697
0.001275761837
0.001462864532
0.001647347226
0.001828406839
0.002005551695
0.002178326654
0.002347288176
0.002511949281
0.002670723619
0.00282121884
0.002955213087
0.00309490124
0.003242541853
0.003407036459
0.003561801916
0.00364049888
0.003679410114
0.003579640483
0.00408621823
0.005097641505
0.006085347619
0.006139056016
0.006209586303
0.006367172099
0.00604321165
0.006041261032
0.006153197888
0.006282100352
0.006423678556
0.006578999483
0.006644260007
0.006668038106
0.006788928066
0.00690846996
0.007032865643
0.00718076348
0.006828214156
0.008221188289
0.0001387510538
0.0001837367781
0.0001573814046
0.0001548498596
0.000167325001
0.0001999290057
0.0002672095342
0.0003858194474
0.0005390385738
0.0007141371574
0.0008987710106
0.001087054054
0.001275702741
0.00146283776
0.001647378221
0.001828555984
0.002005890276
0.002179052119
0.002348772578
0.002514408341
0.002674824432
0.002827936575
0.002970338416
0.003109293156
0.003247716831
0.003388807951
0.003539116974
0.003470994673
0.003619504399
0.003676313411
0.004610640414
0.006229672941
0.008258213981
0.008102227212
0.007984851742
0.007816199583
0.007338002327
0.006911532473
0.006849526587
0.006985907538
0.007055566878
0.00716970842
0.007278208123
0.007359498077
0.007487942265
0.00760112683
0.007717802328
0.007845654495
0.007421198062
0.008572954865
0.0001387512291
0.0001837371203
0.0001573817068
0.0001548502496
0.0001673253537
0.0001999297383
0.0002672268021
0.000385835683
0.0005390336607
0.0007141229037
0.0008987698257
0.001087065999
0.001275730705
0.001462896106
0.0016475004
0.001828809008
0.002006401683
0.002180038424
0.002350448242
0.002517123263
0.002678861924
0.002834361707
0.002981776891
0.003121020571
0.00325710954
0.003391532604
0.003525668457
0.003634000573
0.00378625998
0.00415464331
0.005246792324
0.007062126731
0.008281915253
0.09493670708
0.08977918596
0.06659235341
0.06388707144
0.05269422922
0.04833391065
0.04698457857
0.0455119507
0.04395491168
0.04271041731
0.04152914952
0.04044109915
0.03938898604
0.03838885329
0.03747124092
0.03289113372
0.02062994988
0.0001387514656
0.0001837375345
0.0001573821445
0.0001548507578
0.0001673257669
0.0001999305721
0.0002672461125
0.0003858608033
0.0005390276672
0.0007141215428
0.0008987773395
0.001087093564
0.001275789811
0.001463004641
0.001647696293
0.001829195013
0.002007052801
0.002181147655
0.002351811942
0.002518900149
0.002681503466
0.002838894489
0.002990669288
0.003136009431
0.003274582286
0.003408096984
0.003538580482
0.003662371121
0.00380739704
0.004113568419
0.005008275187
0.006538660214
0.008434570016
0.00836925707
0.008287857946
0.008414224863
0.008021259738
0.007510832548
0.007261665399
0.007294405866
0.007393630538
0.007529328397
0.007666038831
0.007797761431
0.007923253115
0.008060856859
0.008211562937
0.008387159933
0.007965407581
0.009165851604
0.000138751752
0.0001837379434
0.000157382578
0.0001548512004
0.0001673263213
0.0001999316198
0.0002672833672
0.0003859315171
0.0005390910101
0.0007141999835
0.0008988887911
0.001087216247
0.001275920954
0.001463159084
0.001647910344
0.001829520283
0.002007578034
0.002181790904
0.002352290874
0.002519246607
0.002682366424
0.002841195975
0.002995646475
0.003145803006
0.003291818353
0.003431503484
0.003569476993
0.003706425475
0.003855890809
0.004075241039
0.004578733936
0.005510031271
0.006401273984
0.006449668321
0.006451379551
0.006539618941
0.006396723054
0.006310931485
0.006298170173
0.00639147539
0.006499109441
0.006604343688
0.006706298153
0.006804560412
0.006911742793
0.007019648409
0.007131745152
0.007264146854
0.006850256226
0.008095762779
0.0001387520846
0.0001837371611
0.0001573821197
0.000154850772
0.0001673261695
0.0001999316457
0.0002673122388
0.0003859941295
0.0005391317102
0.0007142502577
0.0008989269668
0.001087293615
0.00127603767
0.001463349922
0.001648189882
0.001829990975
0.002008265535
0.002182773067
0.002353329201
0.002520277216
0.002683633362
0.002843462259
0.002999630041
0.003152355283
0.003302250975
0.003448639879
0.003591484378
0.003732099794
0.003875537175
0.004037453986
0.004279551434
0.004685520619
0.005118769952
0.005233885988
0.005320663428
0.005421958442
0.005442858573
0.00545482429
0.005543146513
0.005638117863
0.005732947701
0.005820146432
0.00590360491
0.005984637507
0.00608956808
0.00619632622
0.006310502326
0.006442650963
0.006080838009
0.007536455238
0.0001387524434
0.0001837376623
0.0001573826753
0.000154851351
0.000167327143
0.0001999334517
0.0002673864922
0.0003861419823
0.000539307946
0.0007144719695
0.0008991700583
0.001087533925
0.001276264041
0.001463552257
0.00164839484
0.001830212821
0.002008600542
0.002183267456
0.00235401916
0.002520834469
0.002683923124
0.00284362474
0.002999980707
0.003153033914
0.003303275186
0.0034501765
0.003593985965
0.003735494709
0.003876351797
0.004021314311
0.004182242544
0.004378659504
0.004589753379
0.004733911715
0.004855797466
0.004974507136
0.00507248288
0.005172917959
0.005279042563
0.005380039596
0.005469389587
0.00556338567
0.005655755343
0.00574721822
0.005849948399
0.005956016066
0.006066074394
0.006201268434
0.005859626113
0.007432563874
0.0001387528439
0.0001837372038
0.0001573825933
0.0001548514446
0.0001673277108
0.0001999345967
0.0002674247558
0.0003862080021
0.0005393576043
0.0007145314987
0.0008992848499
0.001087724483
0.001276562036
0.001463978451
0.00164898831
0.001831016415
0.002009687437
0.002184722057
0.002355924254
0.002523159302
0.00268644178
0.002846001675
0.003002056562
0.003154952681
0.003304998046
0.003451973181
0.003596131768
0.003738308313
0.003879920806
0.004022283816
0.004166617718
0.004316293816
0.004466723519
0.004604067858
0.004729825466
0.004845586343
0.004955422342
0.00505928077
0.005158741607
0.005254216777
0.005322910181
0.005391729526
0.005480406894
0.00556902074
0.005669167319
0.005774525928
0.00588327139
0.006018753574
0.005694235495
0.007337324241
0.0001387532454
0.0001837383028
0.0001573839577
0.0001548534636
0.0001673312102
0.0001999414918
0.0002675735393
0.0003865131725
0.0005415013659
0.0007176200151
0.0009033675388
0.001092754732
0.001282506771
0.001470811732
0.001656695715
0.001839587485
0.002019129875
0.002195058114
0.002367207008
0.002535448383
0.002699732997
0.002860060307
0.003016618117
0.003169784292
0.003319848525
0.003466818528
0.003611037494
0.003753498076
0.003896031232
0.004038319189
0.004180032365
0.004322003304
0.004462086893
0.00459674979
0.004725625396
0.004849098948
0.004965307155
0.00507617594
0.005183207236
0.005287253537
0.005361362848
0.005416144325
0.00550115124
0.005599665698
0.005696439604
0.005801894089
0.005909611572
0.006050234872
0.00573437681
0.007403590799
0.0001387536556
0.0001837391167
0.000157387152
0.0001548609265
0.0001673461541
0.0001999667634
0.0002676728337
0.0003879692323
0.0005452401912
0.0007233533306
0.0009112502185
0.001102852523
0.001294856079
0.001485436345
0.001673610949
0.001858806798
0.002040663231
0.002218924165
0.002393427509
0.002564064713
0.002730802852
0.002893648146
0.00305270587
0.003208103323
0.003360089568
0.003508952721
0.003655070191
0.003798982456
0.003942147066
0.004084827475
0.004226439933
0.004367316321
0.004505698811
0.004639565361
0.004768665228
0.004891686163
0.005007692884
0.005119167383
0.005227528108
0.005333135434
0.005409120016
0.005465785669
0.005544690316
0.005642973219
0.005740981835
0.005846654427
0.005956363062
0.006101398023
0.00579113695
0.007477714381
0.0001387540651
0.0001837539275
0.0001574109894
0.0001549067019
0.0001674293881
0.0002001027177
0.0002695545889
0.0003924922142
0.0005523770909
0.0007331780081
0.0009237140598
0.001117875447
0.001312364573
0.00150536832
0.001695905629
0.00188341206
0.002067528627
0.00224801433
0.00242471349
0.002597539649
0.002766468565
0.002931534928
0.003092845225
0.00325056227
0.003404919877
0.003556204133
0.003704688122
0.003850658102
0.003994433154
0.004136319028
0.004276613621
0.004416037337
0.004553107367
0.00468611744
0.004814679934
0.004937996718
0.005053335172
0.005164535991
0.005273468041
0.005380160251
0.005457259562
0.005515666703
0.005597301423
0.005695957763
0.005795201279
0.005902067392
0.006014372909
0.00616337575
0.005855766155
0.007549021536
0.0001387546553
0.0001838280698
0.0001575179642
0.0001551036672
0.0001677768085
0.0002017265121
0.0002740441617
0.0004002414676
0.0005639128587
0.0007483893872
0.0009425293011
0.001140170116
0.001338075096
0.001534460658
0.001728347485
0.001919171594
0.002106565358
0.002290285797
0.002470175622
0.002646155881
0.002818207734
0.002986364338
0.003150767668
0.003311562057
0.003468982459
0.003623291733
0.003774752203
0.003923617021
0.004069858426
0.004213376928
0.004354615461
0.004493972413
0.004630504749
0.00476303006
0.004890799815
0.00501356088
0.005129344462
0.00524160771
0.005350679297
0.005457422177
0.005549009049
0.005631649127
0.005727499135
0.005827344073
0.005927820678
0.0060352666
0.006149630456
0.006302343417
0.005989459538
0.007668960531
0.000138756194
0.0001842291816
0.0001579894972
0.0001558526636
0.0001706233931
0.0002074670725
0.0002852411526
0.000417052066
0.000585422783
0.0007733976145
0.0009700143479
0.001169566292
0.001368886425
0.001566408193
0.001761156999
0.001952600299
0.002140421712
0.002324415478
0.002504453746
0.002680482195
0.002852492087
0.003020575878
0.003184850654
0.003345478246
0.003502799988
0.003656870087
0.003808212033
0.003956780186
0.004102911139
0.004246776788
0.00438821321
0.00452701035
0.004662740238
0.004794569185
0.004921197957
0.005043450928
0.005159057938
0.005276779461
0.0053954014
0.005506823425
0.005614784901
0.005722103967
0.005829993443
0.005939172855
0.006049467677
0.006164499476
0.006285318834
0.006442061349
0.006128479558
0.007808281614
0.0001387698881
0.0001858853402
0.0001597325963
0.0001592433439
0.0001774523328
0.0002182499153
0.0003092502537
0.0004524862013
0.0006292379054
0.0008227410133
0.001022901054
0.00122452879
0.001424978767
0.001622748679
0.001817175117
0.002007792009
0.002194285053
0.002376476271
0.002554325361
0.002727817639
0.002897002216
0.003062010837
0.003222974409
0.003380104786
0.003533737105
0.003684067725
0.003831464574
0.003976151134
0.004118327377
0.004258230732
0.00439586672
0.004531171572
0.004663865335
0.004792948162
0.004916548447
0.005038210983
0.005148351209
0.005274752193
0.005409728775
0.005541382033
0.00566826003
0.005795111355
0.00592359991
0.006054305357
0.006187113683
0.006322587403
0.006460762242
0.00662546126
0.006315479473
0.007990101132
0.0001389085657
0.0001924589302
0.0001709281991
0.0001737955222
0.0001975754731
0.0002584197027
0.0003739220572
0.0005321764858
0.0007151135575
0.0009089373757
0.001105766229
0.001301672108
0.001494784501
0.001684198511
0.001869437523
0.002050273641
0.00222657624
0.002398284268
0.002565352066
0.002727855474
0.002885965161
0.003039906087
0.003189856583
0.003336122126
0.003478976801
0.003618751446
0.003755758099
0.003890325999
0.004022770994
0.004153359349
0.004282292197
0.004409704113
0.004535514244
0.004659707057
0.004781164189
0.004904446452
0.005037435031
0.005200672107
0.005373304375
0.005548045601
0.005723655853
0.005900054738
0.006078412073
0.006259123004
0.006442245614
0.006627591329
0.006816036985
0.007017118234
0.006676820133
0.008313810433
0.000139473906
0.0001692664696
0.0001772195173
0.0002081742166
0.0002736500113
0.0003849116062
0.000543899905
0.0007406559691
0.0009599620013
0.001189129747
0.001420455922
0.001650028816
0.001875974246
0.002097340522
0.002313601262
0.002524436919
0.002729657258
0.002929171274
0.003122963451
0.003311113079
0.003493684912
0.003670939933
0.003843258361
0.004011023907
0.00417456609
0.004334453942
0.004490930906
0.004644617979
0.004795794102
0.004944870582
0.005092180084
0.005238155323
0.005383039086
0.005526670311
0.005667166861
0.005811352607
0.005972670117
0.006164661827
0.006369284334
0.006579817388
0.006793131677
0.007009590427
0.007230073488
0.007454623757
0.007683028681
0.00791506717
0.008149953642
0.008386506879
0.008404697657
0.009717461979
0.0001421796081
0.0001448178857
0.0001846338987
0.0002645252766
0.0004026610526
0.0006079461545
0.000868704194
0.001162595623
0.001470006092
0.001779162204
0.002084487779
0.002383608731
0.002675480868
0.00295959911
0.003235886468
0.003504468217
0.003765569781
0.004019485291
0.004266687554
0.00450777861
0.004743358063
0.00497407034
0.005200546991
0.005423554347
0.005643872298
0.005862288229
0.006079665025
0.006296832923
0.006514540913
0.006733771286
0.006954031682
0.007176876708
0.007405603553
0.007647036832
0.007896969918
0.008159952986
0.008435228679
0.008727402422
0.009035011032
0.00935006566
0.009665160127
0.009985705661
0.01031496809
0.01065548722
0.01100796933
0.01137555146
0.01175269845
0.01219337491
0.01250248512
0.01247085607
0.0001393167609
0.0001144854099
0.0001095918489
0.000126231007
0.0001719798614
0.0002584296633
0.00039248466
0.0005701999475
0.0007789607779
0.001005325133
0.001239659706
0.001476272066
0.001712033655
0.001945247807
0.002174838258
0.002400049477
0.002620338424
0.002835289672
0.003044651249
0.00324824972
0.003446070749
0.003638123511
0.003824557378
0.004005564806
0.004181416613
0.004352366371
0.004518942822
0.00468126282
0.00484119506
0.005003222734
0.005181556517
0.005414694896
0.005753712426
0.006159114546
0.006342123631
0.006451096806
0.006545504686
0.006619259526
0.006712636688
0.006814316482
0.006927326384
0.00704792391
0.007170244556
0.007291321851
0.007409906022
0.007527002299
0.00764357557
0.007799753566
0.007784719816
0.008722933229
0.0001349700645
0.0001099818145
9.440273772e-05
8.36081319e-05
7.6477176e-05
7.165604551e-05
6.843428298e-05
6.64490407e-05
6.551596797e-05
6.553902234e-05
6.646308307e-05
6.824335146e-05
7.082533787e-05
7.41366339e-05
7.808836161e-05
8.258267985e-05
8.751307079e-05
9.278292579e-05
9.831070855e-05
0.0001040235365
0.0001099103436
0.0001159586066
0.0001222227533
0.0001287682993
0.0001356587664
0.0001430242076
0.0001508610762
0.000159377765
0.0001686641618
0.0001797412533
0.0001945964258
0.0002165363461
0.0002476512613
0.0002828628117
0.000292849813
0.0002989535708
0.0003046607439
0.0003105397205
0.0003201726888
0.0003326895328
0.0003478555978
0.0003651954935
0.0003842840908
0.0004044837764
0.0004253965453
0.0004466887879
0.0004654054471
0.001021461814
0.001015871105
0.00147108067
0.0001340100893
0.0001114253144
9.570285596e-05
8.475937911e-05
7.738935583e-05
7.223338696e-05
6.854442026e-05
6.590223616e-05
6.405966889e-05
6.286830453e-05
6.223768012e-05
6.210947145e-05
6.244266252e-05
6.320747228e-05
6.437631812e-05
6.592419565e-05
6.781926954e-05
7.004948037e-05
7.259467717e-05
7.546234126e-05
7.865598272e-05
8.219383914e-05
8.611751556e-05
9.047892315e-05
9.534594628e-05
0.0001008010498
0.0001069448713
0.0001138258236
0.0001215152461
0.0001299904972
0.0001391531141
0.0001486886675
0.0001581523343
0.0001668518051
0.0001741719511
0.0001775907376
0.0001771489004
0.0001798950459
0.0001893705796
0.0002032881493
0.0002200253353
0.0002390153219
0.0002600567523
0.0002825242941
0.0003061845129
0.0003310359045
0.0003554972841
0.0008322162926
0.0008286991899
0.001019485361
0.0001340644074
0.0001117537827
9.617692972e-05
8.475820463e-05
7.738398484e-05
7.214077701e-05
6.838316444e-05
6.568674611e-05
6.380844208e-05
6.260398946e-05
6.198590777e-05
6.190180698e-05
6.231656042e-05
6.319951199e-05
6.45250546e-05
6.626994702e-05
6.841095195e-05
7.092291153e-05
7.378882561e-05
7.700193206e-05
8.057113133e-05
8.451071989e-05
8.885726924e-05
9.36679962e-05
9.90204375e-05