/*--------------------------------*- C++ -*----------------------------------*\
| =========                 |                                                 |
| \\      /  F ield         | OpenFOAM: The Open Source CFD Toolbox           |
|  \\    /   O peration     | Version:  2.2.1                                 |
|   \\  /    A nd           | Web:      www.OpenFOAM.org                      |
|    \\/     M anipulation  |                                                 |
\*---------------------------------------------------------------------------*/
FoamFile
{
    version     2.0;
    format      ascii;
    class       volScalarField;
    location    "10";
    object      p;
}
// * * * * * * * * * * * * * * * * * * * * * * * * * * * * * * * * * * * * * //

dimensions      [0 2 -2 0 0 0 0];

internalField   nonuniform List<scalar> 
86889
(
590.3468861
590.0033364
589.8683675
589.7018196
589.4471823
589.1659004
588.8759179
588.5577888
588.1994634
587.7978067
587.348903
586.847076
586.285066
585.6553655
584.9478424
584.1519994
583.2563581
582.2470539
581.1086905
579.8233866
578.3696238
576.7237653
574.8565393
572.7363747
570.3221601
567.5714649
564.4255554
560.821485
556.6799525
551.9067966
546.3751514
539.9508341
532.4783143
523.7871253
513.7069745
501.976591
488.4263046
472.6723889
454.420834
433.3779415
409.2018875
381.545963
350.1268632
314.775965
275.436903
232.2381634
185.4917982
136.0396777
85.26885897
39.04441899
590.1955475
589.9375263
589.7589024
589.5624921
589.3383023
589.0878844
588.8136427
588.5094846
588.1670554
587.7809962
587.3467942
586.8591316
586.3112428
585.6956477
585.0026406
584.2218153
583.3418611
582.3486678
581.2273089
579.9610035
578.5266463
576.9037233
575.0610834
572.9682409
570.5880085
567.8734745
564.7703403
561.2157067
557.1311157
552.4225364
546.9731014
540.6425916
533.2878167
524.7165169
514.7596508
503.1607637
489.8619523
474.2138955
456.0964435
435.2164278
411.1861525
383.6408704
352.2859656
316.931617
277.498163
234.0688192
186.9077467
136.7050437
85.17945677
37.98108439
590.1957195
590.024383
589.8772436
589.7003118
589.4887607
589.2482908
588.9841193
588.6843596
588.3413969
587.9541742
587.5208228
587.0362208
586.4938796
585.8867281
585.2049741
584.4396286
583.5781133
582.6079718
581.5141259
580.277254
578.8798664
577.2961587
575.5022524
573.4637034
571.1477887
568.5070473
565.4930619
562.0412333
558.0803987
553.514754
548.2344671
542.0961301
534.9614935
526.6366829
516.9412956
505.6340271
492.6464236
477.3639667
459.6040293
439.0692379
415.3259288
388.0092311
356.7850141
321.4552541
281.8731066
238.1008432
190.3914175
140.0913059
86.88895716
39.39531378
590.2034644
590.0267265
589.8648142
589.6687168
589.4717774
589.2509629
588.9904565
588.7062133
588.3845062
588.0180566
587.6073285
587.1492588
586.6364864
586.0608349
585.4140937
584.684952
583.8636579
582.9360477
581.8884837
580.7041875
579.3646366
577.8468735
576.1262356
574.1725939
571.952474
569.4248956
566.5413101
563.2434568
559.4594642
555.1037505
550.0627483
544.2109439
537.3986503
529.4380966
520.1228143
509.230609
496.5752673
481.7833723
464.5496874
444.4970053
421.1843253
394.2121459
363.2184554
327.9282212
288.1678111
244.0222372
195.9582692
144.9411806
89.63107541
40.62820409
590.2849764
590.1232579
589.9849142
589.8077058
589.6290518
589.4439281
589.2103631
588.9382854
588.6306223
588.2784316
587.8804978
587.4376412
586.9430049
586.3903857
585.7716492
585.0777227
584.2974214
583.4176678
582.424786
581.3031052
580.0344487
578.5980267
576.970306
575.1235725
573.0268539
570.6433548
567.9276103
564.8271202
561.2727984
557.1833714
552.4518378
546.9546606
540.5404717
533.027022
524.2091267
513.881069
501.7855063
487.6497367
471.0954793
451.6788873
428.9409228
402.4376387
371.7533811
336.5399702
296.5633224
252.0141023
203.0842597
150.3360823
93.04095186
42.19599278
590.3769159
590.2119646
590.0716677
589.890669
589.7086303
589.5282876
589.3174417
589.05834
588.7685694
588.4435493
588.0755904
587.668569
587.2154816
586.7073483
586.1367786
585.4956148
584.7739621
583.9598307
583.0399445
581.9996155
580.8215238
579.4863742
577.9726344
576.2554378
574.3066932
572.0942049
569.5776215
566.7114374
563.4280487
559.6569447
555.2981305
550.2210661
544.2669458
537.2709722
529.0449929
519.3814347
508.008221
494.6493731
478.8929217
460.2577997
438.2396355
412.3291379
382.053331
346.95565
306.7221883
261.5049828
211.1973819
156.7488334
97.14449943
44.01878162
590.5161666
590.359347
590.2320251
590.0675014
589.9027981
589.7405789
589.5554409
589.3313596
589.0637457
588.7527801
588.4118992
588.0335635
587.613728
587.145262
586.6212984
586.0342155
585.3747834
584.6319693
583.7931769
582.8442957
581.7686847
580.5480825
579.1624409
577.5898001
575.8052722
573.7824259
571.4866749
568.8793748
565.9040401
562.4913575
558.543422
553.9364329
548.5094158
542.1125598
534.5612747
525.646063
515.1164592
502.6348962
487.7777185
470.0283608
448.8189966
423.5885094
393.7884859
358.8428682
318.2942818
272.1100641
220.3545448
164.1401529
101.87612
46.14747463
590.6677391
590.5104889
590.385274
590.22301
590.063617
589.9082434
589.7372041
589.5337483
589.2914237
589.0155505
588.7094744
588.37208
587.9986676
587.5828371
587.1182377
586.5979607
586.0136212
585.3550562
584.6103543
583.765934
582.806293
581.7140961
580.4702871
579.0556077
577.4477753
575.6270887
573.5660108
571.2360177
568.5906984
565.5622347
562.0599852
557.9648725
553.1132057
547.3523119
540.4978591
532.3506122
522.6990284
511.1963894
497.3599768
480.5967458
460.2876588
435.8102568
406.5284657
371.7499275
330.8735925
283.6861771
230.3132887
172.2105195
107.0065244
48.431642
590.8520968
590.7005835
590.5852602
590.4357815
590.2940292
590.1535488
589.9979882
589.8257269
589.6158482
589.3723998
589.0981579
588.7980246
588.4694118
588.1061282
587.7021252
587.2512846
586.7461876
586.1775062
585.5340147
584.802384
583.9674006
583.0114745
581.9171086
580.6662539
579.2379239
577.620424
575.7951447
573.748686
571.4430981
568.8100476
565.7726801
562.2148749
557.9801749
552.9250608
546.8709854
539.5743907
530.8590366
520.3419347
507.5189288
491.7509953
472.360228
448.6484195
419.8980372
385.2749219
344.0814983
295.9348996
240.8938935
180.7965009
112.5136711
50.92924634
591.0483048
590.8979601
590.7851635
590.641969
590.5045442
590.3816726
590.2472752
590.095324
589.9126276
589.7067138
589.4709954
589.2143013
588.9368996
588.6330858
588.2970986
587.9236481
587.5062988
587.0365433
586.5037491
585.8944593
585.1938289
584.3836999
583.4444477
582.3608497
581.1132125
579.6893429
578.0908942
576.3168129
574.3493531
572.1325314
569.5873004
566.5797532
562.9404415
558.5241981
553.1734331
546.6586501
538.8738147
529.4728648
517.8006042
503.0961348
484.6514645
461.7065024
433.4429759
398.9369951
357.3817305
308.2620167
251.5191613
189.2993077
117.9273227
53.36252089
591.2671518
591.1212731
591.0191748
590.8853088
590.76348
590.6563644
590.5427456
590.4149671
590.2610455
590.0896118
589.8930304
589.6808959
589.4551916
589.2115282
588.9450761
588.6515655
588.3255963
587.9595286
587.543515
587.0645402
586.5067509
585.8500323
585.0690144
584.1481593
583.0724606
581.8313368
580.4300051
578.8881985
577.2170506
575.3984559
573.3485911
570.9369758
567.9999303
564.3642613
559.8192836
554.1224512
547.1636157
538.654676
528.0212332
514.3481408
496.8241335
474.6100941
446.7894522
412.3652361
370.4166911
320.3611813
262.0243007
197.7266777
123.3424534
55.84826124
591.4914253
591.348169
591.2510772
591.1266665
591.0175943
590.9257785
590.8316484
590.7275514
590.601721
590.4644412
590.3079062
590.1421846
589.9704077
589.7894066
589.5954713
589.3855213
589.1553448
588.8982673
588.6062431
588.2666505
587.8584185
587.3592949
586.7411668
585.9800207
585.062644
583.9843254
582.7642972
581.4469061
580.0777657
578.650869
577.0652835
575.1390705
572.6896838
569.5272292
565.5183579
560.527176
554.7451633
547.6255312
538.1257608
525.4586134
508.7929303
487.2173173
459.739945
425.2739466
382.8303866
331.7370734
271.7832414
205.3955424
128.2097284
58.05352446
591.7314365
591.5913561
591.5005347
591.3857798
591.289912
591.2146002
591.1406162
591.0610285
590.9635102
590.8602006
590.7433626
590.6234994
590.505075
590.3862018
590.2645335
590.1383876
590.0049856
589.8598422
589.6979954
589.5013715
589.247786
588.9129102
588.4659121
587.8634757
587.0732218
586.0908418
584.9474054
583.7389178
582.5905228
581.5731135
580.559181
579.3452467
577.7236673
575.4079646
572.0989925
567.486141
562.0411168
555.6033783
547.299281
535.8026624
520.0687624
499.1320036
471.9528005
437.4504077
394.5415562
342.5037349
281.0502775
212.6872179
132.8919598
60.21048493
591.974345
591.8369727
591.7515964
591.6457057
591.561642
591.5016274
591.4464148
591.3897065
591.3196161
591.248916
591.1700823
591.0946635
591.0281824
590.9699835
590.9190751
590.8755402
590.837716
590.8061181
590.7755939
590.7244253
590.6307684
590.4700636
590.2020693
589.7738422
589.1368986
588.2786097
587.2514424
586.1480301
585.1841981
584.4460778
583.739347
582.8788795
581.5728215
579.6194933
576.6923944
572.5243941
569.1446534
564.2843285
556.7202517
545.9580558
530.9875296
510.5513954
483.5501041
448.8762848
405.3626367
352.2623532
289.3433651
219.0973116
136.9848997
62.08174608
592.2228029
592.0882979
592.008471
591.9114536
591.8384813
591.7936945
591.7567347
591.7218058
591.6780755
591.638552
591.5957537
591.5623022
591.5448662
591.5439924
591.5601249
591.5952655
591.6494978
591.7275999
591.8241433
591.917517
591.9891109
592.000624
591.8975481
591.6036236
591.0387226
590.1413686
588.9317042
587.6688059
587.0109006
586.9039078
586.99514
586.9066844
586.4436167
585.4788671
582.8318441
576.8888801
573.8923274
570.7349297
564.5482783
554.9560312
540.8324717
520.8986238
494.1975155
459.4992052
415.5847941
361.6023446
297.3123591
225.3324117
141.0136574
64.01147916
592.4709295
592.338812
592.2638315
592.1746164
592.1126754
592.0810315
592.0606772
592.045687
592.0261031
592.0149535
592.0051769
592.0099053
592.0369064
592.08791
592.1646816
592.2709624
592.4089686
592.5867144
592.8005206
593.0352169
593.2788418
593.4851066
593.6045598
593.5601145
593.2348151
592.504518
591.2972037
589.7928089
588.9580756
588.8486309
589.0834785
589.2165848
588.9698318
588.0854582
586.1950284
583.005337
580.99493
578.0791639
572.611295
563.7187068
550.1407828
530.6778961
504.1422695
469.2935479
424.9470924
370.0776632
304.5247263
230.8673647
144.5184808
65.60554254
592.7178743
592.5880962
592.5177831
592.4357753
592.3835748
592.3642218
592.3591236
592.3621727
592.364232
592.3782067
592.3981627
592.4367351
592.5026004
592.5986836
592.7278206
592.8952264
593.1042373
593.3668546
593.6750459
594.0216753
594.3864588
594.7286613
594.9720293
595.047296
594.829415
594.0451414
592.3983766
590.4164418
590.5413174
591.916688
592.3895121
592.4610759
592.3438593
591.8233295
590.6036684
588.1874747
585.7827485
583.0958846
578.8136825
571.0045351
558.17917
539.2721697
513.0871864
478.3476017
433.8041801
378.3461327
311.7285501
236.5784069
148.1536635
67.26069753
592.960314
592.8324836
592.7663121
592.690667
592.6469244
592.6382435
592.6461562
592.6649164
592.6856145
592.7210671
592.7660495
592.8330426
592.9311483
593.063953
593.2349202
593.4502787
593.7141242
594.0426366
594.4281918
594.8755175
595.3709347
595.8891637
596.3682117
596.7347642
596.8984263
596.2812228
594.6628676
591.396241
591.9725885
592.6099139
593.8934056
594.7333578
594.902068
594.610241
593.7673153
592.0723239
590.4756415
588.4707688
584.8573485
577.7298297
565.4410478
546.9829619
520.9459578
486.3114755
441.6365227
385.6902438
318.1742232
241.6118531
151.4572073
68.8369723
593.1964843
593.0703699
593.0079289
592.9377726
592.9014091
592.9020785
592.921392
592.9536295
592.989792
593.0431726
593.1079205
593.1974628
593.3208779
593.4815955
593.6831603
593.931614
594.2312808
594.5950612
595.0169403
595.4905635
595.9979417
596.499766
596.9221392
597.2012595
597.2225309
596.6995006
595.3441516
593.7090487
594.1802925
595.9229443
596.8284692
597.3762244
597.6884108
597.9357779
597.3512389
595.7838813
594.4428697
592.6030256
589.0770401
582.3675744
570.6202347
552.712167
527.3011157
493.084436
448.5753494
392.4779675
324.3174127
246.5917629
154.7899866
70.3068261
593.424526
593.2997958
593.2403714
593.1746678
593.1443268
593.1525945
593.1810353
593.2241559
593.2723587
593.3394039
593.418959
593.5250792
593.6664469
593.8459167
594.0666145
594.3338773
594.6517909
595.0303667
595.4688496
595.9548805
596.4796211
597.000997
597.47334
597.8261409
597.9485791
597.7276346
597.1258257
596.264553
596.1837242
596.8913015
597.9089849
599.1370278
599.4347043
600.4127575
599.6230733
597.4515803
597.4521679
596.0247216
592.4758128
585.7746033
574.3162356
556.7943455
531.8026516
497.8906518
453.526479
397.3860079
328.8902642
250.1931413
157.2939414
71.45304367
593.6430006
593.5194309
593.4626505
593.4003658
593.375128
593.3895314
593.4252258
593.4768154
593.5340379
593.6108427
593.7010923
593.8184527
593.9710133
594.1610373
594.3909421
594.6650243
594.9860121
595.3619547
595.791159
596.2559204
596.7426033
597.2176985
597.6341007
597.9227098
598.0106865
597.8491085
597.4582843
597.1185311
597.485103
598.5529464
599.7253285
601.180788
601.1055409
602.8570986
602.1426094
597.7866236
598.3732566
597.6626531
593.9376499
587.0872123
575.7943176
558.5836822
534.0243823
500.5545836
456.5550268
400.6530258
332.0439249
252.8348056
159.22419
72.29821063
593.8505054
593.7275788
593.6726045
593.6127041
593.5909937
593.6095369
593.6502491
593.7075254
593.7704902
593.8531079
593.9495489
594.0727092
594.2299926
594.4229647
594.6531612
594.9235716
595.2359404
595.5947
595.9996199
596.4334905
596.8801519
597.3221448
597.7268767
598.0497211
598.2561796
598.3329013
598.3455986
598.4123135
598.762934
599.4733927
600.2860765
601.2172417
601.447406
602.0777025
602.0304021
599.7987566
599.3020058
597.5980177
593.4277679
586.208453
574.7721874
557.6107648
533.1988998
499.9672656
456.2542414
400.6652244
332.2688473
253.1583565
159.4635355
72.39534697
594.0466933
593.924491
593.8711466
593.8131962
593.7944271
593.8161017
593.8603694
593.9211533
593.9878444
594.0735416
594.1725739
594.2972042
594.4541505
594.6441506
594.867867
595.1270621
595.4229279
595.7556545
596.1254133
596.5200895
596.9239934
597.3202259
597.686659
597.9942365
598.2167864
598.3441612
598.436021
598.6036949
598.9770447
599.6246033
600.4037392
601.1417169
601.5520016
601.7407504
601.2235465
599.632555
598.0948286
595.6117597
590.9912169
583.252271
571.3232847
553.8567004
529.3627215
496.2336197
452.78965
397.5655368
329.6630564
251.2493689
158.1943758
71.81765648
594.2295029
594.1071715
594.0540177
593.9964784
593.9787882
594.0014729
594.0466693
594.1080241
594.1756258
594.261008
594.3586924
594.4808086
594.633073
594.8153138
595.0272234
595.2696057
595.5426694
595.8447937
596.1737206
596.5233096
596.8793805
597.2280609
597.5504728
597.8371087
598.074823
598.2631274
598.4502873
598.6969592
599.0464334
599.508195
599.9930231
600.3683314
600.4691915
600.2390272
599.4785713
597.9200899
595.6263091
592.152481
586.6230443
578.0280775
565.2786965
547.1446854
522.1961794
488.8333956
445.4158852
390.5755685
323.4618733
246.2753078
154.8780393
70.2819998
594.4014715
594.2797285
594.2275445
594.171918
594.1551386
594.1788702
594.2246358
594.2860015
594.3532662
594.436421
594.5303486
594.6469164
594.7909777
594.9614445
595.1572311
595.3782977
595.6240166
595.8921349
596.1789047
596.4781919
596.7815445
597.0770215
597.3493944
597.5921016
597.7994635
597.9646861
598.1160205
598.2825963
598.4819131
598.7078365
598.8910765
598.9126233
598.6068336
597.8606972
596.5147863
594.3242516
591.2153558
586.8044121
580.2599263
570.6081128
556.8239697
537.7643567
512.0811828
478.2539484
434.7348614
380.3199382
314.2837041
238.9473067
150.0194459
68.0419059
594.5579942
594.4348579
594.3804195
594.3243475
594.3047702
594.3262776
594.3692394
594.4275113
594.4913055
594.5691036
594.6570821
594.7665945
594.9009569
595.0579961
595.235938
595.433989
595.6507237
595.8832509
596.1271655
596.3760165
596.6225851
596.8573491
597.0689622
597.2509521
597.3942051
597.4947911
597.5663682
597.6187467
597.6487661
597.6156325
597.4437128
597.0281932
596.2197643
594.9056256
592.9541834
589.9897353
585.929546
580.3505867
572.4963608
561.5224658
546.4484172
526.1908746
499.5123458
464.9918498
421.2564585
367.2548094
302.5318339
229.4730733
143.7017777
65.13410936
594.7084235
594.5857136
594.5321464
594.473864
594.457431
594.4807634
594.5228803
594.5795731
594.6406538
594.7083285
594.7885772
594.8892282
595.0108807
595.1510539
595.3079137
595.4800346
595.6652009
595.8598305
596.0590171
596.2562815
596.4440067
596.6125991
596.7532814
596.8567816
596.9112802
596.9127865
596.8541745
596.7309731
596.5192218
596.1579312
595.5732463
594.6609874
593.2661934
591.2532678
588.4608329
584.5777363
579.4887501
572.6692635
563.4764571
551.0873719
534.5905925
512.9961958
485.1886368
449.8927933
405.9224453
352.4446222
289.2721344
218.7865
136.6996855
61.9400838
594.8361598
594.7109253
594.6523966
594.5897819
594.5662775
594.5830535
594.6225946
594.6730259
594.7253447
594.7841676
594.8589423
594.9529371
595.064036
595.1895768
595.327524
595.4758695
595.6314802
595.7901202
595.9461372
596.0926845
596.2213932
596.3228672
596.3856915
596.3992573
596.3491821
596.2242807
596.0055561
595.6733872
595.1884897
594.4906479
593.4882096
592.0700977
590.0767505
587.353862
583.7057271
578.9025421
572.6624128
564.5366957
553.9163171
540.0330854
522.0438326
499.0412375
470.0392426
433.9571996
389.7860078
336.9764696
275.4982275
207.495499
129.4035658
58.63504553
594.9642581
594.8406785
594.7838242
594.7262682
594.7067169
594.7286836
594.7686589
594.8132785
594.8551643
594.9045803
594.9680831
595.0492226
595.1445295
595.2508864
595.3661726
595.4876946
595.6116577
595.7328144
595.8448737
595.9399926
596.0090539
596.0408999
596.0227455
595.9400755
595.7758575
595.5099243
595.1152558
594.5574577
593.7880147
592.7364313
591.3028953
589.361264
586.7461202
583.2884103
578.7844452
572.987783
565.6038244
556.1770769
544.1396641
528.7919494
509.3511921
484.9925716
454.8595918
418.0690273
373.808597
321.7869203
262.0975426
196.4697625
122.3217144
55.45108153
595.0693425
594.9402074
594.874794
594.8068166
594.7772627
594.7896129
594.8140988
594.8354369
594.8724626
594.9227095
594.9860721
595.0641678
595.1516934
595.2465624
595.3463718
595.447883
595.5463653
595.6360276
595.7095772
595.7585081
595.7722824
595.7385229
595.6416846
595.465002
595.1855018
594.7770728
594.2052201
593.4248959
592.3753728
590.976672
589.1280124
586.6827894
583.4755301
579.322802
574.0071371
567.2807042
558.7845717
548.1411827
534.7892126
518.0714956
497.2847633
471.6866191
440.5393455
403.1432097
358.8967623
307.7741353
249.8600942
186.3908947
115.8544015
52.54764748
595.1821757
595.0569071
594.9962121
594.9367435
594.9173274
594.9343964
594.9483815
594.9698007
595.0033916
595.0430688
595.0918207
595.1498131
595.218919
595.2932543
595.3713524
595.4484848
595.5188652
595.5758084
595.6113203
595.6154477
595.5764866
595.4802402
595.309176
595.0421002
594.652902
594.1082392
593.3680432
592.3775148
591.0684754
589.353228
587.1210448
584.2183303
580.4643693
575.671085
569.5993354
561.9865932
552.5124543
540.7670372
526.2369151
508.3097404
486.3392826
459.6777106
427.6892231
389.8174358
345.6479527
295.2466026
238.9950952
177.605996
110.194469
49.99751637
595.2693445
595.1311517
595.0501693
594.9764943
594.9418422
594.9281061
594.922217
594.9405274
594.9711446
595.0093895
595.0585414
595.1185501
595.186171
595.2588619
595.3295473
595.3947386
595.4480676
595.4828127
595.4902679
595.4597721
595.3786989
595.2310394
594.9970763
594.6525604
594.1679368
593.5051136
592.616991
591.4447828
589.9081571
587.9208606
585.347572
582.0438491
577.8296046
572.4729683
565.764681
557.4003865
547.1444488
534.4665835
518.9353701
500.0155117
477.0924661
449.5876764
416.9535613
378.7556531
334.6907128
284.8022036
229.6963788
170.3355917
105.4939764
47.84928765
595.3852195
595.2507924
595.1847465
595.1315152
595.0908141
595.0675205
595.0661126
595.075112
595.0913618
595.1176708
595.1546457
595.2000068
595.2511819
595.3048578
595.3567362
595.4009841
595.4325837
595.4436581
595.4245109
595.3624483
595.2449913
595.0531358
594.7675736
594.3591247
593.7972361
593.0366375
592.031204
590.7077666
588.9948944
586.7806007
583.947414
580.3244734
575.745223
569.9658363
562.7722846
553.8440666
543.0172534
529.6067881
513.2857145
493.6103109
469.9655593
441.8456814
408.7342
370.3343847
326.3812879
276.9983214
222.4562114
164.0262659
101.8503764
46.16850093
595.4706154
595.2532211
595.1578578
595.0883587
595.0310928
594.9980221
594.9899845
595.00016
595.0233091
595.057321
595.1005507
595.1509621
595.2056294
595.2610316
595.3123987
595.3542059
595.3798086
595.3811717
595.3488853
595.270696
595.1313669
594.9128127
594.5912814
594.1401189
593.5225964
592.6963472
591.6045471
590.1807338
588.3397777
585.9717296
582.9484724
579.1024246
574.255604
568.1756318
560.6328333
551.3180412
540.0759194
526.16677
509.3241147
489.1170333
464.9981903
436.4606923
403.0671752
364.5281647
320.6855854
271.6292321
217.6597008
159.6587366
99.62091011
44.45629732
595.6601797
595.356483
595.3041288
595.2651604
595.1832691
595.1219773
595.0997225
595.0980172
595.1076988
595.1287517
595.1605626
595.2004401
595.2450715
595.290801
595.332673
595.3649996
595.3811756
595.3727937
595.3297267
595.2394231
595.0862005
594.8515133
594.5119411
594.0385025
593.3953507
592.5351672
591.4027107
589.9290334
588.0266436
585.5799363
582.4655993
578.5112107
573.5318398
567.2905841
559.5814514
550.0986124
538.5512459
524.4639357
507.4030822
486.9425316
462.588142
433.8530721
400.3221005
361.7319968
317.9672409
269.1719508
215.731518
158.657366
99.65486464
45.50499694
590.1655006
589.8819754
589.6876648
589.5325982
589.3056471
589.0510436
588.7813481
588.4806336
588.1375131
587.7488008
587.3108578
586.8182769
586.2639283
585.6400266
584.9377462
584.1472222
583.2560902
582.2515745
581.1172126
579.8365504
578.3872366
576.7478633
574.8885352
572.778833
570.3795573
567.6435331
564.5197524
560.9395286
556.8306058
552.0886216
546.6086769
540.2365535
532.8312214
524.1686666
514.185931
502.5680422
489.0656012
473.559025
455.5183207
434.6389765
410.5663587
382.9870107
351.6512331
316.3588354
277.0090961
233.7054759
186.7941484
137.5746668
85.66068442
38.29565605
590.0294577
589.8166904
589.6069516
589.3732243
589.1814963
588.9624412
588.7046532
588.4151079
588.0879562
587.7153546
587.292545
586.8148443
586.2760191
585.6683332
584.9826388
584.2088623
583.3344796
582.3475621
581.2324119
579.9722911
578.5458636
576.9294245
575.0970867
573.0172108
570.6504142
567.9551438
564.8770211
561.3521283
557.3064676
552.6421641
547.2444381
540.9789525
533.6878624
525.1942285
515.3151351
503.8181889
490.4974263
475.1182024
457.2646276
436.5533445
412.6358838
385.1888641
353.9397048
318.6492721
279.1939459
235.6025608
188.1276823
136.9335638
87.60387655
38.04345106
590.0288505
589.8951624
589.733145
589.5193412
589.3189272
589.1136022
588.8742611
588.5900954
588.2600894
587.8850053
587.4626875
586.9878872
586.4534255
585.8530991
585.1762727
584.4153174
583.5573206
582.5905078
581.5003133
580.2665594
578.8716297
577.2946393
575.5053689
573.4793744
571.1748795
568.5524863
565.5584764
562.1336588
558.204381
553.6783044
548.4387337
542.3683538
535.2925006
527.0304091
517.3985012
506.1727159
493.1576752
478.0624269
460.5249862
440.1194032
416.4898282
389.2930386
358.2205399
322.9591875
283.3546039
239.415682
191.4585776
139.8474177
90.70461124
39.86680006
590.0458705
589.9168197
589.7604376
589.5350614
589.2836478
589.077338
588.8639457
588.6025908
588.2931169
587.9395337
587.5419623
587.0951576
586.5916132
586.0272795
585.3894082
584.6668227
583.8505
582.9281118
581.886122
580.7076172
579.3742176
577.8647765
576.1552747
574.2155113
572.0130734
569.5070983
566.6511517
563.3871671
559.6477316
555.3446303
550.3724149
544.6021751
537.8965589
530.0573424
520.8866277
510.149079
497.6255899
483.0693143
466.0889651
446.2531097
423.1599866
396.4309821
365.6604221
330.4991778
290.7081488
246.2811796
197.7845371
143.2140244
92.74228814
41.24562677
590.1267218
590.0188536
589.8882414
589.7034746
589.4889336
589.2656156
589.0683212
588.8325974
588.540967
588.1989064
587.8145546
587.3813948
586.8992111
586.3535352
585.7423099
585.0552226
584.2809743
583.4069189
582.4202124
581.3054833
580.0451252
578.618241
577.0020472
575.1690498
573.090095
570.7281038
568.0411881
564.9773448
561.4724459
557.4462839
552.7945709
547.3990508
541.1110672
533.7466108
525.0908817
514.9151061
503.0516242
489.2021059
472.944264
453.8147336
431.3967522
405.2351839
374.8673756
339.8532772
299.8535482
254.7410871
205.486185
148.4233581
95.33858898
42.77101289
590.2204837
590.1125398
589.9834423
589.8037963
589.5936804
589.3696341
589.143734
588.9306801
588.6736943
588.3582719
588.0015798
587.6088527
587.1671612
586.6686971
586.1067152
585.4727936
584.7574929
583.9495283
583.036694
582.0045959
580.8361857
579.512077
578.0111197
576.3085871
574.3795583
572.1905591
569.7055899
566.8795409
563.652736
559.9545374
555.6786434
550.7317152
544.9416515
538.147534
530.1163888
520.6393394
509.5321215
496.5029949
481.110601
462.8425465
441.2198099
415.8052298
385.973062
351.1850801
310.9764827
264.9820375
214.3875656
155.0089632
99.7843669
44.82970574
590.3598935
590.2599369
590.1449766
589.9865552
589.8058683
589.6112823
589.4021372
589.1817671
588.9458321
588.6670614
588.3391082
587.9721637
587.5635114
587.1052759
586.5904482
586.0116161
585.3598891
584.6239955
583.7924586
582.8515534
581.7856972
580.5766324
579.2046328
577.6478484
575.8843295
573.8870703
571.6254023
569.0630423
566.1491754
562.8171083
558.9652236
554.5233544
549.3060559
543.1503704
535.8173791
527.1405184
516.8793387
504.7722266
490.3468751
473.0385165
452.3287206
427.7694082
398.5753627
364.0748239
323.6729519
276.8779012
224.6736537
162.7681259
105.0138512
47.25345282
590.5121105
590.4126707
590.2995793
590.1456597
589.9715948
589.7912684
589.5962034
589.3877015
589.1617722
588.9153124
588.6315768
588.3089668
587.9471057
587.541592
587.0864752
586.5752087
585.9995888
585.3496968
584.6136311
583.7786371
582.8297298
581.749699
580.5203694
579.12191
577.5353308
575.7413391
573.7167696
571.4346706
568.853703
565.9099012
562.5213839
558.6202964
554.0261211
548.5333024
541.9106818
534.0704197
524.7136359
513.6178316
500.2635792
484.0195669
464.3259396
440.6713892
412.1787376
378.0217816
337.4347018
289.8195371
235.8429263
171.248088
110.7264155
49.86950588
590.6966307
590.6025869
590.4988812
590.3594646
590.2048219
590.0415897
589.8744173
589.6919607
589.4843947
589.2598858
589.0137333
588.7341788
588.4182394
588.0648553
587.6704109
587.2289435
586.7329804
586.1736141
585.5402329
584.8197463
583.9968747
583.0548955
581.9761701
580.7423342
579.3366457
577.7461614
575.9591162
573.962279
571.7203275
569.181149
566.2762522
562.9424196
559.0281391
554.3179673
548.6011876
541.6076423
533.1634539
523.0667688
510.7735292
495.6103031
476.9483228
454.2193613
426.4227462
392.6086595
351.8306794
303.3490122
247.5030773
180.258409
116.8712411
52.72717554
590.8931397
590.8002691
590.6994121
590.5668831
590.418171
590.2742408
590.1267656
589.9683698
589.7879178
589.5852953
589.379243
589.1486717
588.88596
588.5920655
588.265912
587.9026418
587.4954935
587.036336
586.515097
585.9190093
585.232774
584.4388405
583.5161945
582.4476143
581.2179017
579.8240846
578.2649005
576.5409386
574.6400006
572.5231114
570.1188484
567.3465841
564.0257092
559.9493549
554.9436358
548.7442456
541.4285604
532.5689454
521.4691622
507.4135604
489.7848887
467.9334684
440.7573759
407.2111401
366.212709
316.8261138
259.0292281
189.1835761
122.9162198
55.50672188
591.1125272
591.0241077
590.9327077
590.810358
590.6772193
590.550166
590.4237109
590.2903618
590.1383689
589.9674695
589.7998817
589.615061
589.4049521
589.1715046
588.9152353
588.6326605
588.3181236
587.9645275
587.562474
587.0987348
586.5554496
585.9148483
585.1542921
584.2558533
583.1982839
581.977608
580.6094872
579.1125324
577.5110392
575.8000008
573.9004563
571.7255405
569.1203142
565.8569526
561.6719509
556.3508853
549.9505072
542.063955
532.0797223
519.112651
502.4764972
481.3930138
454.7490743
421.4165441
380.2109881
329.9773727
270.3702146
198.0099914
128.9440167
58.32777085
591.336926
591.2512176
591.1645013
591.0519745
590.9314767
590.8203461
590.713597
590.6042099
590.48045
590.3422783
590.2138
590.0756626
589.9201991
589.7499858
589.566829
589.3688062
589.1517179
588.9098609
588.634477
588.3104402
587.9199697
587.4426565
586.8489306
586.1157505
585.2182702
584.146112
582.9360541
581.6486816
580.3440551
579.042893
577.6181043
575.9107077
573.7046123
570.8443105
567.093735
562.4010423
557.5919833
551.348591
542.5573889
530.5886028
514.8611169
494.4530269
468.2218956
434.9206283
393.2915844
342.0703509
280.7938012
206.0005262
134.3504069
60.8282202
591.577061
591.4943866
591.4133669
591.3110499
591.2036283
591.1095957
591.02297
590.938114
590.8432425
590.7384974
590.6491787
590.5571156
590.4554667
590.3478952
590.2377166
590.1247617
590.0067658
589.879861
589.7355668
589.5586608
589.3313169
589.0281324
588.6124489
588.0386098
587.2686954
586.2787396
585.0918843
583.8671961
582.7814275
581.9145365
581.1030459
580.1154489
578.7475595
576.696862
573.4117183
569.3305483
564.5163107
559.4896159
552.2304896
541.4929943
526.7027818
506.9455748
481.0646189
447.7655954
405.6913508
353.5130545
290.6212786
213.4892776
139.3672035
63.1240233
591.820053
591.7401078
591.664355
591.5710253
591.4756105
591.3966287
591.3292701
591.2674723
591.1998623
591.1273397
591.0759442
591.028382
590.9789678
590.9325742
590.8940316
590.8650895
590.8457452
590.8344433
590.822638
590.7983932
590.7439314
590.6284771
590.4061379
590.0192275
589.3993061
588.5200238
587.3799838
586.1682602
585.2380375
584.6842085
584.2291615
583.5770554
582.5554022
580.8194861
576.3854226
572.0164577
573.8149461
568.3645701
561.2116247
551.586246
537.7510672
518.5827395
493.0266413
459.580067
416.9383363
363.669858
299.2567436
220.0162599
143.709636
65.11420673
592.0686063