/*--------------------------------*- C++ -*----------------------------------*\
| =========                 |                                                 |
| \\      /  F ield         | OpenFOAM: The Open Source CFD Toolbox           |
|  \\    /   O peration     | Version:  2.2.1                                 |
|   \\  /    A nd           | Web:      www.OpenFOAM.org                      |
|    \\/     M anipulation  |                                                 |
\*---------------------------------------------------------------------------*/
FoamFile
{
    version     2.0;
    format      ascii;
    class       surfaceScalarField;
    location    "10";
    object      phi;
}
// * * * * * * * * * * * * * * * * * * * * * * * * * * * * * * * * * * * * * //

dimensions      [0 3 -1 0 0 0 0];

internalField   nonuniform List<scalar> 
265716
(
38.35029412
-1.274428151
-0.8309823323
-41.88298891
2.907671249
2.730434225
39.77419558
-0.8982342017
-0.1502331592
-0.07222253627
-0.3032113859
40.03363116
-0.1413054972
0.1181730524
-0.07986891568
-0.1564340437
40.09216157
0.01848229867
0.0610370379
-0.05815989281
-0.07988965216
40.11938509
0.0333724741
0.04059013461
-0.04762756021
-0.05355836505
40.13673223
0.03314370382
0.03663184035
-0.04197608677
-0.04514628819
40.15084235
0.0319427478
0.0342326741
-0.03864901861
-0.04163623547
40.16330852
0.03063617296
0.0322743612
-0.03605842287
-0.03931790153
40.17472516
0.029118877
0.03048283447
-0.0336587672
-0.03735927142
40.18538697
0.02751538603
0.02893290948
-0.03148421472
-0.03562546311
40.19548303
0.02588510077
0.02765086022
-0.02954001567
-0.03409167865
40.20517036
0.02421634709
0.02667097427
-0.02779766066
-0.03277649455
40.21459248
0.02245598549
0.02597523072
-0.02620536958
-0.03164760014
40.22376804
0.02058014921
0.02551291561
-0.02473757845
-0.03053046923
40.23275968
0.01855835615
0.0253349363
-0.02338583105
-0.02949869901
40.24158771
0.01640917795
0.02548909769
-0.02214098228
-0.02858467715
40.25023699
0.01414663173
0.02596793426
-0.02090308953
-0.02786033111
40.25847821
0.01169875936
0.02685987139
-0.01960197934
-0.02719714335
40.26633706
0.009097046541
0.02807428159
-0.01828221731
-0.02674748144
40.27341388
0.006433768525
0.02986185485
-0.01702373961
-0.02634783452
40.27964812
0.003758318132
0.03186920736
-0.01575149277
-0.02610971122
40.28433724
0.001098446549
0.03483081877
-0.01459162853
-0.02602577785
40.28692758
-0.001504953727
0.03856516812
-0.01347498129
-0.02617508159
40.28670786
-0.003947472473
0.04307407156
-0.01242609419
-0.02647987319
40.28226014
-0.006422664876
0.0493772675
-0.01155284614
-0.02695384152
40.27339983
-0.008698788697
0.05597469153
-0.01060512771
-0.02780987621
40.25932759
-0.01071641715
0.06300794788
-0.0100402388
-0.02817941804
40.23905562
-0.0129472208
0.07173855508
-0.008853088278
-0.02966617247
40.21358801
-0.01485957578
0.08006843698
-0.009584659755
-0.0301569473
40.18560377
-0.01631066715
0.08745087006
-0.01117711356
-0.03197775595
40.16241322
-0.01453373982
0.09869208671
-0.0258532817
-0.03511443743
40.15877309
-0.006457189771
0.1125709429
-0.06014172752
-0.04233192899
40.1931027
0.005979790882
0.1218902918
-0.1105852135
-0.05161698679
40.24289961
0.003857586442
0.1314664617
-0.1304911682
-0.05463088491
40.24294305
-0.04137305527
0.1013075619
-0.03620853321
-0.0237705602
40.13146602
-0.06332353889
0.07298976092
0.03391308373
0.06789694757
39.74064817
-0.1057311323
0.07482773828
0.137754294
0.2839661116
39.44531412
-0.1453908014
0.07323057879
0.1936071815
0.1738857596
39.30002704
-0.1418233629
0.1059934986
0.1299290571
0.05118563784
39.23096714
-0.1418132583
0.133443564
0.08832778905
-0.01090126447
39.19194693
-0.1418369936
0.1601867205
0.05765387657
-0.03698661129
39.16376951
-0.1433414724
0.1820159456
0.03777268417
-0.04827276573
39.13707437
-0.1466134265
0.1992332195
0.02719599728
-0.05312353341
39.1087241
-0.1499491295
0.2093982554
0.02337193412
-0.05447385522
39.08074008
-0.1545500839
0.2160121389
0.02237346477
-0.05585511847
39.05158998
-0.1573173719
0.2165253726
0.02355649394
-0.05361850012
39.03968943
-0.1489841045
0.2019074946
0.01918124391
-0.06020670125
38.85052315
0.001725865404
0.1343970593
0.0663251048
-0.01328179166
37.91070569
0.7506109182
0.3442627342
-0.04317261453
-0.1118847262
1.102252947
0.9189977895
39.70882064
-1.903455252
-1.915909456
44.83720835
-0.2640603725
-2.108917966
-47.99020051
4.25154252
43.17188711
0.2840769994
1.567642029
-1.084631851
43.06635067
0.02787629255
0.09686363611
-0.1605088217
43.08243666
0.03482629446
0.06611333026
-0.09854313306
43.1048067
0.04014978642
0.05227495515
-0.08142213038
43.12077932
0.04233930758
0.05278111185
-0.07794909396
43.13386794
0.0428351546
0.05386807744
-0.07784888589
43.1455798
0.04227585365
0.05491103236
-0.07826229773
43.15639995
0.04097925006
0.05582300021
-0.07850328569
43.16656076
0.0392218274
0.05652931072
-0.07839626095
43.17621869
0.03712051895
0.05711487401
-0.07800798223
43.18553516
0.03466841623
0.05766016367
-0.07742835358
43.19469729
0.03180944844
0.05819831409
-0.0767136366
43.20389199
0.02851882572
0.05875900885
-0.07589199056
43.21327146
0.0247990527
0.05938495906
-0.0750048357
43.22286524
0.02070171192
0.06017808581
-0.07406396465
43.23282471
0.01629250175
0.06103745822
-0.07314251838
43.24294091
0.01160972838
0.06214576949
-0.07217247075
43.2530655
0.006748750311
0.0635517756
-0.07132776833
43.26302195
0.001822132143
0.06508044321
-0.07042473122
43.27239552
-0.00328780302
0.06737733107
-0.06970445197
43.28083468
-0.008264258236
0.06999622934
-0.06907211199
43.28749909
-0.0130099899
0.07355981783
-0.06871893804
43.29130668
-0.01735356128
0.07820102175
-0.06860204619
43.29173331
-0.02136131365
0.08314766472
-0.06863563811
43.28707655
-0.02505480244
0.09009241809
-0.06907942884
43.27759248
-0.02832770268
0.0961421648
-0.06904719297
43.26131477
-0.03163273242
0.1054122659
-0.07044918448
43.24026513
-0.03528053805
0.1119969765
-0.07052678873
43.21363234
-0.04016824315
0.1226032727
-0.07211254449
43.18823372
-0.046587031
0.1307021126
-0.07325046767
43.16847223
-0.05628346985
0.1441188707
-0.07453137251
43.16593609
-0.06772991963
0.1525367178
-0.07629255513
43.17747601
-0.08476530209
0.150016894
-0.07293493192
43.18111128
-0.1007817283
0.1099838745
-0.05421172182
43.12844574
-0.117212953
0.0696076573
0.03694589665
41.9768025
-0.1361686351
0.0636062694
1.118473375
41.45841524
-0.1478493475
0.06266779413
0.4581771096
41.26577389
-0.1629683679
0.09573175641
0.1180527142
41.2040156
-0.1790896465
0.1195958021
-0.02056292501
41.17934919
-0.1946960283
0.1423548363
-0.06483164221
41.16141009
-0.2065606795
0.1608418323
-0.07968550627
41.14225801
-0.216125015
0.1751728927
-0.08651139758
41.12065278
-0.222432894
0.1832614914
-0.08917451461
41.09883238
-0.2291522622
0.1880702784
-0.09165017236
41.0750842
-0.2336164171
0.1904733621
-0.0904287284
41.08777842
-0.236687447
0.1706940723
-0.09568779868
41.24944191
-0.2490929872
0.1356341131
-0.04648108662
44.0946299
-0.550205674
-1.365466421
-0.1789062048
0.02138596996
2.307271231
46.75604191
-3.887816223
47.43219989
-0.009828933482
-2.452787607
-49.32565084
4.092007312
45.07195279
0.03123260637
4.156023749
-1.542932105
48.8448851
-0.1474123462
-3.822215547
0.2245720754
48.81240901
-0.02617454635
-0.05185987007
0.1453370124
48.78450571
0.02751050477
-0.003524903184
0.0440677095
48.7826694
0.0345658317
0.02966049544
-0.02005046754
48.79369074
0.03480915661
0.04656957386
-0.04956465651
48.80867958
0.03355135609
0.05390212502
-0.06016619958
48.82406463
0.03109434801
0.05692928773
-0.06242914555
48.8391289
0.02792842186
0.05842083859
-0.06219140292
48.85380545
0.02429013368
0.05951788908
-0.06136372293
48.86819542
0.02015967677
0.06057589896
-0.06045678835
48.882497
0.01537314614
0.06172844972
-0.05959334615
48.89684762
0.009846917367
0.06313119166
-0.05880951183
48.91149664
0.003519365003
0.06474906588
-0.05811797242
48.92637053
-0.003282445331
0.06664147016
-0.05753079191
48.94159235
-0.01046105155
0.06862087393
-0.05708868472
48.95711505
-0.01834711972
0.07119493847
-0.05676035834
48.97300636
-0.02670217314
0.07403425351
-0.05647414965
48.98878089
-0.03532507042
0.07763531272
-0.05626215988
49.0040496
-0.04399203543
0.08173538409
-0.05629931879
49.01829992
-0.05246778334
0.08645663446
-0.05650293241
49.03072773
-0.06064361762
0.09204208563
-0.05683578736
49.04028292
-0.06797451096
0.09847106741
-0.05740496104
49.0459494
-0.07462086801
0.1058140535
-0.05822075001
49.04629029
-0.08029843007
0.114168528
-0.05926576962
49.04042595
-0.08565602024
0.1236656292
-0.06047312499
49.02753273
-0.09011796818
0.1332259812
-0.06184781335
49.00770942
-0.09528303325
0.1432471484
-0.06342152458
48.98203161
-0.1019091988
0.1521649148
-0.06474632039
48.95370381
-0.1110670513
0.1589475529
-0.06614001152
48.92717235
-0.1239918341
0.1604960168
-0.06625707124
48.91051509
-0.1403871494
0.1554065387
-0.06609346362
48.90860359
-0.1627527431
0.1403130992
-0.06041565428
48.92230265
-0.1863468964
0.1167066509
-0.04484273688
48.92237514
-0.2162749194
0.05664776893
0.0423398313
47.92090242
-0.2392089769
-0.05197994402
1.156491559
47.51063606
-0.2612655185
0.04227041672
0.4814104802
47.37211622
-0.2899087313
0.1295298744
0.1359281659
47.33641994
-0.3187943998
0.1789147381
-0.003516160333
47.32628416
-0.3438276802
0.2080904117
-0.04882552042
47.31733467
-0.3634710825
0.2300745928
-0.06421747725
47.30400373
-0.3802507775
0.2494525795
-0.07199863761
47.28733625
-0.3923001731
0.2616368639
-0.07510518191
47.27089257
-0.4056101341
0.2721509898
-0.07925269938
47.24181903
-0.4100579494
0.283349912
-0.07783867505
47.186935
-0.362730374
0.2737917546
-0.09286902575
42.37658686
-0.2077585283
4.806320077
-0.03731038494
46.3621796
-0.3808562548
-4.004444603
-0.1504983614
-0.3404264324
2.635473005
48.07205473
-3.983535965
47.85962975
0.004184905547
-2.521702549
-49.37251639
4.020575554
45.07465579
0.009541840154
4.226820995
-1.42015611
51.96635256
0.009055657272
-7.809908031
0.7617434447
52.37859014
0.01469976199
-0.9655193466
0.5124076393
52.26477665
0.02613836564
-0.1029354373
0.2181212434
52.23911371
0.03031268702
-0.005630438849
0.03554673396
52.24259465
0.0290995929
0.03796709622
-0.03573826377
52.25584942
0.0268697662
0.05334899531
-0.05992194921
52.2710238
0.02371626064
0.05978036632
-0.06757643185
52.28565772
0.01963399565
0.0627831224
-0.06912236924
52.29974489
0.01474138176
0.06447104075
-0.06900921122
52.31357675
0.009118962312
0.065811281
-0.06860214344
52.3272574
0.002732722739
0.06707117792
-0.06811113105
52.34132109
-0.004994881837
0.06825180301
-0.06747338119
52.35593008
-0.01375996576
0.06954323127
-0.06687259738
52.37123681
-0.02329765474
0.07105510504
-0.06634629455
52.38745966
-0.03367485723
0.0728220872
-0.06583084072
52.40450943
-0.04484133863
0.07480747442
-0.06536271248
52.42231392
-0.05661633236
0.07716765235
-0.06505770277
52.44062798
-0.06875287377
0.08002736061
-0.06491328956
52.45893932
-0.08094724949
0.08355737772
-0.06491321592
52.4766044
-0.09268862808
0.087670451
-0.06511437518
52.49275846
-0.1039747216
0.09259008305
-0.06541285252
52.50616739
-0.1138604729
0.09847540084
-0.06599821276
52.51573357
-0.1228038836
0.1054703841
-0.06685361659
52.51974792
-0.1297439661
0.1134088757
-0.06797784105
52.51703606
-0.1361131348
0.1225367986
-0.06936822238
52.50653239
-0.1408116723
0.1319667499
-0.07076978292
52.4882135
-0.1459157035
0.1413562832
-0.07240536915
52.46282333
-0.1525276902
0.1497320321
-0.0737235097
52.43402472
-0.1615250678
0.1537415519
-0.0744858422
52.40399654
-0.1713080399
0.1513344109
-0.07399121154
52.38626248
-0.1908466861
0.1398067538
-0.07161476338
52.38176987
-0.2120622771
0.1162752048
-0.06247465391
52.38565042
-0.2364112918
0.07586558256
-0.02968339677
52.35585978
-0.2661297204
-0.004463611706
0.08410745892
52.20490735
-0.2917737598
-0.1696757139
0.3731911544
52.12106943
-0.3200934319
-0.06881148095
0.2114756703
52.0973926
-0.3534958086
0.03138066467
0.05588083617
52.10117957
-0.3886428125
0.08479554141
-0.01873624309
52.10940741
-0.4204608571
0.1138973359
-0.04549485414
52.110083
-0.4417883866
0.132862071
-0.05522291239
52.10387198
-0.460769386
0.1471594971
-0.06043276163
52.09409524
-0.4764642976
0.1567554975
-0.06281759856
52.0813331
-0.4911211208
0.1648221101
-0.06655201061
52.0709333
-0.5026853501
0.1676728899
-0.06464882469
51.32859443
-0.503370244
0.9622920852
-0.0793173035
42.37543177
-0.4621896943
9.233146919
-0.02555655493
46.67869831
-0.4244929348
-4.118593468
-0.1410378435
-0.4100150535
2.666870574
48.08141162
-3.999995495
47.90798199
0.00337278333
-2.523525448
-49.38685621
4.003212009
45.06903567
0.00695031404
4.229546036
-1.388008033
51.983967
0.01282539771
-8.007511207
1.088810326
53.06976169
0.01704138738
-1.823418644
0.7352824895
53.84502135
0.02099530885
-1.092714903
0.3225984816
53.81382921
0.02305941996
-0.03453477146
0.07298037899
53.81669308
0.02165570832
0.02923337444
-0.02465315439
53.8294145
0.0184777116
0.04990643979
-0.05423558572
53.84554647
0.01429198151
0.05673941241
-0.06344687246
53.86186513
0.009267749645
0.05918662656
-0.06513877905
53.87802443
0.003173510842
0.06012740373
-0.06471856956
53.89414398
-0.003691598416
0.06083285409
-0.0641415397
53.91032249
-0.01149470722
0.06154168681
-0.06349245782
53.92658418
-0.02076644383
0.06238191628
-0.06287171293
53.94311421
-0.03139992902
0.06336784709
-0.06225758562
53.96025076
-0.0433486615
0.06457597707
-0.06166117756
53.97818198
-0.0565642748
0.06610284533
-0.0611443353
53.99706836
-0.0709515707
0.06795554228
-0.06073138183
54.01694726
-0.0863064235
0.07022461189
-0.06041314395
54.03770364
-0.1023048634
0.07301076432
-0.06021485928
54.05896639
-0.1184721877
0.07640064584
-0.0601381945
54.08019526
-0.1341716828
0.08055702019
-0.06030258178
54.10026905
-0.1489736411
0.0855546253
-0.0606293534
54.11784631
-0.1617552113
0.09151108222
-0.06119356693
54.13147059
-0.1730942508
0.09882697377
-0.0621610538
54.13963277
-0.1814274566
0.1068850678
-0.06336405889
54.14001471
-0.1881343677
0.1165636685
-0.06492486835
54.13192913
-0.1924536225
0.125847646
-0.06612079419
54.11444007
-0.1958977845
0.1355164826
-0.06804551715
54.089841
-0.2004301968
0.1416683398
-0.06916758237
54.06080715
-0.2077987351
0.144518538
-0.06921261684
54.03668366
-0.218644597
0.1397555155
-0.06829714587
54.01899351
-0.2323475535
0.1246728115
-0.06548384001
54.01699309
-0.249872139
0.09753569597
-0.05772729565
54.03203777
-0.2713619859
0.05851953095
-0.03861534842
54.04724935
-0.2975536925
0.002953348785
0.0132562956
54.04712709
-0.3246472789
-0.06090640861
0.09390008207
54.05642395
-0.3553422185
-0.03259905841
0.05854750987
54.07490565
-0.3895403545
0.009919235934
0.00764130366
54.09657726
-0.4263034507
0.03766295786
-0.02167842052
54.10837197
-0.4579408517
0.05971328103
-0.03403124659
54.11667394
-0.4889806749
0.07867352363
-0.03978719587
54.1163362
-0.5119940794
0.0955535728
-0.0439954005
54.11075439
-0.5314637656
0.1072668914
-0.04668984721
54.10811443
-0.5570290662
0.1198791218
-0.05133638812
53.14578949
-0.5603347419
1.06809142
-0.04812073164
51.56277413
-0.5564072902
1.697861565
-0.06181300279
42.39391834
-0.5068643764
9.219708334
-0.006181027938
46.70786188
-0.453140102
-4.162378017
-0.1229199715
-0.4361709817
2.618649551
48.11918998
-4.003821927
47.91551765
0.001988733101
-2.523561418
-49.3900904
3.999518468
45.07024199
0.004197916266
4.228258301
-1.380230076
51.92438088
0.00809519835
-8.085484798
1.236076296
52.99657346
0.01069758247
-1.898900623
0.8330520097
54.6955339
0.01293725049
-2.057182085
0.3662798799
55.09284096
0.01433033485
-0.4745068192
0.0859290366
55.09942828
0.01405391645
0.02316347674
-0.02214878468
55.11201032
0.0108756984
0.04877482177
-0.05375460601
55.12715301
0.00603996982
0.05692537062
-0.06381578745
55.14164177
0.0005744341365
0.06011441136
-0.06590955597
55.1555231
-0.006727592251
0.06167090071
-0.0656508079
55.16918688
-0.0150105942
0.06272631673
-0.06507073647
55.18311469
-0.02466423507
0.06371630774
-0.06447420158
55.19738598
-0.0359095436
0.06472166903
-0.06384944177
55.21227342
-0.04885874817
0.06580762895
-0.0632358334
55.22806065
-0.06353437681
0.06707782727
-0.06267891347
55.24498649
-0.07991407103
0.06860901524
-0.06218465087
55.26327226
-0.09788963443
0.07041924159
-0.0617665692
55.28308516
-0.1172299059
0.07254285565
-0.06143191055
55.30442789
-0.1375403219
0.07511063701
-0.06121754555
55.32706205
-0.1582322201
0.07824299358
-0.06111678088
55.35048925
-0.1785184525
0.08211366263
-0.06119378666
55.37363395
-0.1975269921
0.08693234698
-0.06152350518
55.39523336
-0.2141586562
0.09287414417
-0.0620700551
55.41281192
-0.22778314
0.1001848292
-0.06307467249
55.42487657
-0.2374298844
0.1081651745
-0.06422772763
55.42802511
-0.2438111389
0.1181874477
-0.065659755
55.42157443
-0.2462850042
0.1276035273
-0.06732183204
55.50635052
-0.247664399
0.0358122249
-0.06882247397
55.48160137
-0.2496389908
0.1439384167
-0.06998158432
55.23229539
-0.2512189103
0.3627429423
-0.07001889719
55.06242042
-0.2549947688
0.2745136189
-0.06829072981
55.03260314
-0.2623905641
0.1248153965
-0.06495758803
55.02992693
-0.2737622639
0.08516098941
-0.05859679439
55.03999393
-0.2886032126
0.05434560089
-0.04717455949
55.07472488
-0.3075118808
0.00309256916
-0.02786789892
55.12182966
-0.3291524237
-0.03968002345
-0.002923550405
55.16330874
-0.3551346854
-0.03562957877
-0.006060683245
55.19415465
-0.3852114846
-0.01819271039
-0.01698822952
55.22023555
-0.4208752998
-0.00910842529
-0.02240460221
55.38322554
-0.45348075
-0.1426341098
-0.02482115097
55.62292571
-0.4942688277
-0.2070620144
-0.02735580971
55.62636323
-0.5226967136
0.0379844752
-0.0307256459
55.52461479
-0.5429231882
0.1460431944
-0.03284242594
55.08729326
-0.5716015202
0.489118506
-0.03723113689
53.16558216
-0.5681633987
1.962448285
-0.03291366571
51.57386002
-0.5635456874
1.64578541
-0.04692894798
42.39933308
-0.5144498812
9.173161903
0.008947094636
46.71670926
-0.4586031882
-4.201993093
-0.1099216409
-0.4404091816
2.584070261
48.14023874
-4.003361695
47.91563997
0.001404388226
-2.523345572
-49.39050656
3.998796782
45.06744633
0.002917623962
4.228268729
-1.378794624
51.8949987
0.005368579685
-8.108617322
1.283791777
52.95605077
0.006819201738
-1.920778234
0.8636047139
54.65745978
0.007513306955
-2.074885113
0.3789002252
55.4804147
0.007602798536
-0.9056226036
0.08939543037
55.87875218
0.006809511327
-0.3693758537
-0.02171698427
55.89145607
0.003713957575
0.0476701155
-0.05321199274
55.90627119
-0.001742367245
0.05601161241
-0.06304410245
55.92138635
-0.008232105892
0.05877663545
-0.06508493322
55.93575768
-0.01619863165
0.05985832643
-0.06475824731
55.94975408
-0.02553661029
0.06063307358
-0.06410306053
55.96363015
-0.03651958883
0.06139317718
-0.06341346041
55.97762744
-0.04941209883
0.06218056693
-0.06267483907
55.99206218
-0.06441129534
0.06307141672
-0.06195313698
56.00731142
-0.08163491812
0.06413966933
-0.06128790511
56.02376327
-0.1011224937
0.06544389208
-0.06068686624
56.04178374
-0.1228121515
0.06706745985
-0.06016499571
56.06172733
-0.1464766777
0.06903734507
-0.05973374815
56.08378711
-0.1716531297
0.07147034509
-0.05941691478
56.10801516
-0.1975992107
0.07436711661
-0.05922778989
56.13403815
-0.2233311644
0.07796030667
-0.05917024623
56.16084518
-0.2473924706
0.08241719517
-0.05935852286
56.18743262
-0.268903111
0.08800034754
-0.05984328585
56.21083567
-0.2855100623
0.09502334539
-0.06069959798
56.22890231
-0.2968663927
0.1031795563
-0.06181000741
56.23721987
-0.3017795409
0.1130680545
-0.06341766722
56.23403429
-0.3017203165
0.1238362913
-0.06521608529
56.1103707
-0.2964754781
0.239207202
-0.06673325656
55.99663102
-0.2911368813
0.2227520197
-0.06751600106
55.52299789
-0.2847049991
0.5743074269
-0.06719040961
55.21116166
-0.2809047803
0.4028013545
-0.06505774431
55.18012761
-0.2803919272
0.1102288602
-0.06119555887
55.16706501
-0.281992582
0.07601850666
-0.05472828453
55.16540585
-0.2853498014
0.04456770804
-0.04616490505
55.20039973
-0.2915543662
-0.01570738574
-0.03524717614
55.25968283
-0.3018212865
-0.06173806469
-0.02488037091
55.3109865
-0.3204249208
-0.06556261675
-0.02045655843
55.34458514
-0.3473692712
-0.05352549719
-0.0179198436
55.37183755
-0.3822820483
-0.05134237068
-0.01450962166
55.68143055
-0.4158185014
-0.3336689123
-0.01359193431
56.14883052
-0.460849628
-0.4850310452
-0.01579475114
56.24645467
-0.4937964801
-0.1074830582
-0.01904833716
55.95807593
-0.5159835409
0.2820666386
-0.02063538779
55.0853907
-0.5479460573
0.8741928542
-0.02517061055
53.16836812
-0.5450561434
1.914742436
-0.02083266079
51.57864906
-0.5414926251
1.602463864
-0.034802106
42.40823545
-0.4936969151
9.126367337
0.02328928734
46.72546497
-0.4398077081
-4.2397967
-0.09622953671
-0.4235704327
2.545122729
48.16426002
-4.000756902
47.91596362
0.0006350827511
-2.523458664
-49.3904473
3.998711939
45.06802716
0.001410293708
4.227951654
-1.378507658
51.89033337
0.002595694355
-8.115508213
1.295975084
52.95014852
0.003051208673
-1.927044322
0.8709973504
54.65380833
0.00273435577
-2.080874591
0.3819939204
55.47862946
0.001971277669
-0.9093888053
0.09019942176
56.27324016
2.072934986e-05
-0.7662811161
-0.0215405483
56.52144324
-0.0028002972
-0.1885723746
-0.05311617645
56.53495296
-0.007749498397
0.05543898483
-0.06294126314
56.54798729
-0.01481378865
0.05865537775
-0.06510769931
56.56023562
-0.02365599363
0.06003871706
-0.06482931525
56.57192594
-0.0340851458
0.06109487896
-0.06423625809
56.58332887
-0.04638757581
0.06207624769
-0.06361075794
56.59476806
-0.06094131958
0.06300996352
-0.06291947269
56.6066313
-0.07801932819
0.06398250942
-0.06223726492
56.61935697
-0.09783252352
0.06506567731
-0.06159326895
56.63345887
-0.1205254705
0.06630950524
-0.06100798968
56.64948575
-0.146121293
0.06775412117
-0.06047142909
56.6680296
-0.1744638345
0.06945973585
-0.06001600974
56.68958518
-0.2050583545
0.07148629186
-0.05963622664
56.7145003
-0.2370842473
0.07395761462
-0.05938732151
56.74264715
-0.2692931965
0.07707549996
-0.05925998652
56.77353884
-0.2998759442
0.08099828913
-0.05940629866
56.80540686
-0.3272471894
0.08618130331
-0.05970518351
56.83563447
-0.3478808171
0.09261546868
-0.06047245344
56.86135854
-0.3618164829
0.1008674617
-0.06164171116
56.87658392
-0.3649272869
0.1112967847
-0.06337480633
56.63844864
-0.3587942919
0.3603156609
-0.06510707142
56.20491813
-0.3447048577
0.5487000557
-0.06694116598
56.0035537
-0.3313686995
0.3089402042
-0.06734569688
55.52264372
-0.3146134484
0.5780228394
-0.06720684677
55.20951116
-0.3029870803
0.4000564306
-0.06484383341
55.19138591
-0.2959540507
0.09408524718
-0.06040082835
55.1767694
-0.2896503889
0.07560303395
-0.05333112655
55.1836636
-0.2826383273
0.03530921692
-0.04491836956
55.21798787
-0.2749409761
-0.01444164707
-0.03649927164
55.26515941
-0.2695575606
-0.04906598007
-0.03037376814
55.30415498
-0.2747071403
-0.0608525892
-0.02386484727
55.33092679
-0.2928542036
-0.06526446196
-0.01602860347
55.35349079
-0.3220410493
-0.07427175882
-0.008539129931
55.66179651
-0.3559465381
-0.3625705859
-0.005613107653
56.12835389
-0.402069942
-0.5179130194
-0.007430109583
56.32067979
-0.439936582
-0.2359078513
-0.01028486833
56.04753556
-0.4656643116
0.2345485221
-0.01173058417
55.07781588
-0.5028180453
0.9409952471
-0.01641100861
53.16667819
-0.5049431873
1.883676252
-0.01265705505
51.58433879
-0.5047315762
1.573183104
-0.02760876363
42.41913489
-0.4629249698
9.10320735
0.03122055553
46.73805545
-0.4132400655
-4.254622359
-0.0908669324
-0.3966827127
2.531690307
48.17953066
-4.000053513
47.91530481
0.0002852753382
-2.523387203
-49.39029458
3.998727108
45.06663117
0.0006562817169
4.227916133
-1.378488299
51.88621316
0.001082083421
-8.115975343
1.297907201
52.94374332
0.0008758898285
-1.927362967
0.8720083005
54.64577799
-0.0003551727986
-2.081319296
0.3823743479
55.4689073
-0.001803518365
-0.9095950447
0.09024075924
56.26259138
-0.005038496802
-0.767225061
-0.02139953916
56.74582816
-0.008272651144
-0.4244982794
-0.05326587051
56.9746273
-0.01354327399
-0.1598855652
-0.06311949008
56.98716987
-0.02058532419
0.05830762488
-0.06507833217
56.99839483
-0.02982653807
0.05964667896
-0.06470073003
57.00874548
-0.04091919299
0.06054286278
-0.06405907355
57.01852559
-0.05416028847
0.06138534399
-0.06339230595
57.02802581
-0.06999375402
0.06220906915
-0.06265640187
57.03767448
-0.08879975847
0.06305841218
-0.06192619046
57.04799317
-0.1109003222
0.06397367247
-0.06122410438
57.05963643
-0.1365879606
0.06499240946
-0.06057272005
57.07337132
-0.1660260762
0.06611272206
-0.05994237083
57.0901049
-0.1991833619
0.06736144262
-0.05937503133
57.11072535
-0.2355980342
0.06875820052
-0.0588385135
57.13613603
-0.2745059805
0.07040518776
-0.05839371201
57.16701909
-0.3145971633
0.07248484946
-0.05806359341
57.12110643
-0.3527476761
0.1567235117
-0.05793887272
57.0610651
-0.3856967957
0.1762830517
-0.05779202164
57.06302119
-0.4110772281
0.1194592332
-0.05821897497
57.09801956
-0.4266631595
0.08896438259
-0.05911626487
57.12232383
-0.4284682814
0.1001480514
-0.0609116769
56.65418869
-0.416609483
0.5890408232
-0.06309110345
56.22559624
-0.3927962862
0.5411926534
-0.06450971131
56.02524705
-0.3687319034
0.303159176
-0.06544858103
55.54723523
-0.3414638717
0.5705366069
-0.06567680084
55.23448644
-0.3193319464
0.3924273639
-0.06333631856
55.21240588
-0.3015770811
0.08623757642
-0.058536117
55.19956383
-0.2867357546
0.06160966641
-0.05168548749
55.18961343
-0.2712419181
0.04192425595
-0.0433738635
55.21428286
-0.250547817
-0.01471190823
-0.03435433973
55.25203989
-0.2275545766
-0.05333785631
-0.02642498975
55.2849086
-0.2156022378
-0.07395009419
-0.01802848181
55.30879048
-0.2210452737
-0.08756816852
-0.008127663172
55.33144634
-0.243647081
-0.102073406
0.00101708827
55.64224129
-0.2761385212
-0.3954126473
0.004804839014
56.1140592
-0.3207945363
-0.5564473111
0.003347729865
56.22077074
-0.3612211785
-0.186376338
0.0009435380651
56.14324476
-0.3915900251
0.003466761131
-2.2327659e-05
55.0710086
-0.4258477021
1.000153831
-0.004895264892
53.16509185
-0.4351075224
1.83516008
0.0009157845137
51.57991713
-0.4338841979
1.527462493
-0.01313885602
42.42307081
-0.3993658486
9.042769582
0.05051389176
46.7422923
-0.3566733512
-4.303799616
-0.07198954588
-0.344577211
2.478282437
48.20408485
-3.992180745
47.91523915
-0.0001289986049
-2.523433266
-49.39014059
3.998749295
45.0666677
-0.0001259444421
4.227798947
-1.378445038
51.88626756
-0.0003628298952
-8.11643659
1.298281856
52.94382349
-0.001076803566
-1.927868334
0.8722653003
54.6455939
-0.002666726645
-2.082009376
0.3825507062
55.46832712
-0.004522771863
-0.9104474718
0.09043372398
56.26122903
-0.008335492952
-0.7684332047
-0.02117144679
56.74367692
-0.01181981769
-0.4258428041
-0.05305764643
57.18639419
-0.01768847139
-0.375334896
-0.06323688747
57.19750646
-0.0243951878
0.0577477173
-0.06504980877
57.20652241
-0.0335791814
0.0593851834
-0.06464815081
57.21428267
-0.0449538737
0.06034573115
-0.06407092608
57.2211528
-0.05874601475
0.06116156771
-0.06344556565
57.22738349
-0.07541423143
0.061926539
-0.06273632779
57.23340292
-0.09544884227
0.06264165442
-0.06201156141
57.23983216
-0.1193265205
0.06330288236
-0.06130548547
57.24745284
-0.1475063551
0.06391353169
-0.06061537456
57.25727764
-0.1803499585
0.06442242797
-0.05992289579
57.27057921
-0.2180463943
0.06479499538
-0.05923307047
57.28909795
-0.2605263391
0.06498088979
-0.0585708749
57.23274534
-0.3066798429
0.146459982
-0.05793310034
57.16714255
-0.3544530288
0.1626287659
-0.05716976887
57.0482432
-0.4010863621
0.2238476493
-0.05660939921
56.8540601
-0.4419556468
0.3063867181
-0.05594466684
56.80963878
-0.4733557654
0.1623181806
-0.05561839865
56.85849514
-0.4920709953
0.07281775714
-0.05626656
56.89623735
-0.4924579628
0.0844757267
-0.05822827254
56.67570485
-0.4734762303
0.3381750137
-0.06077636693
56.25270073
-0.439361532
0.5325298322
-0.06296084077
56.05277199
-0.4009450087
0.2966952017
-0.06455508359
55.57849627
-0.3638342046
0.5614203168
-0.06477625823
55.27113451
-0.3348596594
0.3847917108
-0.06190461912
55.26353286
-0.314254526
0.07697532389
-0.05669878055
55.27384445
-0.2916987713
0.0428872473
-0.04823837124
55.26849027
-0.2612378666
0.03429399382
-0.03894821674
55.28851548
-0.2134304504
-0.02472508569
-0.03242042257
55.29227815
-0.1579527731
-0.04544456038
-0.02792395362
55.2957823
-0.1248864095
-0.07491373566
-0.01930843983
55.29798026
-0.1163957003
-0.1024777437
-0.004376123618
55.31033577
-0.1367178554
-0.1246701753
0.005380011348
55.58646341
-0.168978023
-0.3940300039
0.01073593557
55.83301627
-0.2136916163
-0.3642190537
0.01055908594
55.85271263
-0.2584985297
-0.1314536945
0.009028872823
55.87647587
-0.3007365666
-0.1220049668
0.0073819887
55.06357129
-0.3360923338
0.7206016153
0.002541992287
53.16844793
-0.3627119472
1.816772247
0.005950851216
51.59231429
-0.3685606082
1.520710512
-0.009903620393
42.43893976
-0.34672088
9.049272591
0.0514531789
46.75872516
-0.3066123013
-4.296209832
-0.07363754237
-0.2935246082
2.486531525
48.21706309
-3.995922484
47.91478174
-0.0003109487301
-2.523394346
-49.38997105
3.998765972
45.06581792
-0.0004871396622
4.227770958
-1.378445746
51.88457295
-0.00117939221
-8.116131471
1.298193284
52.9410179
-0.002132051776
-1.927564588
0.8721750574
54.64168091
-0.004050387491
-2.081804544
0.3825253927
55.46301942
-0.006073240503
-0.9102029594
0.09041515297
56.25448489
-0.01028140687
-0.7683994589
-0.02111983809
56.73529953
-0.01375141506
-0.4258539479
-0.05302881842
57.17607014
-0.019861534
-0.3753377549
-0.06325949761
57.18539006
-0.02638468774
0.05770890139
-0.06503900766
57.19236261
-0.03534074594
0.05936680251
-0.06457744069
57.19770735
-0.04662199497
0.06029599956
-0.06397223446
57.20172949
-0.06049581485
0.06103113702
-0.06330306359
57.20463385
-0.0774511044
0.06169348207
-0.06256053451
57.20679861
-0.09808398128
0.0622468832
-0.0617760502
57.20887598
-0.1230440031
0.06264045982
-0.06099989012
57.21175885
-0.1530011091
0.0628022963
-0.0601899383
57.21670783
-0.1885336356
0.06259145879
-0.05935627522
57.19979471
-0.2302594088
0.08760715929
-0.05848052224
57.12790934
-0.2782681862
0.1471251162
-0.05749739831
56.92510098
-0.3311357868
0.2835656106
-0.05630085329
56.71762452
-0.3868664048