/*--------------------------------*- C++ -*----------------------------------*\
| =========                 |                                                 |
| \\      /  F ield         | OpenFOAM: The Open Source CFD Toolbox           |
|  \\    /   O peration     | Version:  2.2.1                                 |
|   \\  /    A nd           | Web:      www.OpenFOAM.org                      |
|    \\/     M anipulation  |                                                 |
\*---------------------------------------------------------------------------*/
FoamFile
{
    version     2.0;
    format      ascii;
    class       volVectorField;
    location    "10";
    object      U;
}
// * * * * * * * * * * * * * * * * * * * * * * * * * * * * * * * * * * * * * //

dimensions      [0 1 -1 0 0 0 0];

internalField   nonuniform List<vector> 
86889
(
(15.03496405 0.006002080741 0.004879530528)
(15.05344222 0.004763117799 0.006236664804)
(15.05654325 0.001968407421 0.006447704904)
(15.06185659 0.001679453906 0.004623545136)
(15.06913122 0.0003849013555 0.00249363443)
(15.07646626 -0.001654605965 0.0005309784674)
(15.08196172 -0.003165408061 -0.0009357920911)
(15.08652602 -0.004167581917 -0.002045370392)
(15.09089976 -0.004899598254 -0.002934037155)
(15.09497616 -0.00540544162 -0.00360194781)
(15.09884051 -0.005730615847 -0.004081724451)
(15.10244887 -0.005915659062 -0.00438761199)
(15.10600484 -0.006016356926 -0.00455686271)
(15.10945931 -0.006075299975 -0.004629489752)
(15.11285587 -0.006119807836 -0.004609944709)
(15.11625516 -0.006161369992 -0.004494714824)
(15.11968888 -0.006223177861 -0.004304662847)
(15.12311321 -0.006320746483 -0.004031941867)
(15.12649955 -0.006443590562 -0.003696093154)
(15.12988017 -0.006578735697 -0.003261925255)
(15.133091 -0.006726703297 -0.002737454528)
(15.13623575 -0.006884789377 -0.00210139651)
(15.13890867 -0.007013885886 -0.001407944802)
(15.1411636 -0.007104200183 -0.0005444146641)
(15.14248332 -0.007159170407 0.0004417811804)
(15.142697 -0.007177526395 0.001485172368)
(15.14167399 -0.007094597795 0.002845658943)
(15.13912587 -0.007112304393 0.004223447542)
(15.1348947 -0.006959501259 0.005669112201)
(15.1291059 -0.007329948036 0.007084469769)
(15.12178248 -0.007702122267 0.008283104947)
(15.11227181 -0.008264782107 0.00968062829)
(15.10039928 -0.009369181584 0.01088992212)
(15.08648817 -0.01072746732 0.01326116091)
(15.07511742 -0.0129463952 0.0156187035)
(15.07264456 -0.01251371623 0.01503866529)
(15.07843787 -0.02019004059 0.01831954633)
(15.0863813 -0.02298053214 0.02000317994)
(15.09014717 -0.02327103555 0.02079561647)
(15.0906747 -0.02385626015 0.02101051866)
(15.08688064 -0.02531967558 0.02291594629)
(15.08137163 -0.02642101219 0.02700259881)
(15.07441429 -0.02688852939 0.03205753674)
(15.06798824 -0.0271624769 0.0360349219)
(15.05757019 -0.02775753197 0.03972608593)
(15.05269124 -0.02830739964 0.04140195158)
(15.03374724 -0.02878349769 0.04431021079)
(15.05496118 -0.03518971248 0.04037456516)
(14.9167338 -0.04074526735 0.03119225321)
(15.28781512 -0.141837532 -0.07251103939)
(15.01777515 0.007422386175 0.005852153351)
(15.02839902 0.01088520736 0.005890626551)
(15.03535276 0.01375285464 0.005862695826)
(15.04238023 0.01790780553 0.005815698349)
(15.04893132 0.02111658679 0.005137918362)
(15.05469629 0.02285519377 0.004259037)
(15.0595571 0.02362161529 0.00359613934)
(15.06371276 0.0238088624 0.003181061114)
(15.06753274 0.02362164022 0.002903435721)
(15.07112944 0.02317542685 0.002706982788)
(15.07454887 0.02253459879 0.002595342554)
(15.07780968 0.02174237678 0.002568172549)
(15.08099618 0.02081716973 0.00261146843)
(15.08418103 0.01977929892 0.002710717775)
(15.08743376 0.01863617571 0.002862334944)
(15.09080896 0.01740340837 0.003070304595)
(15.09435031 0.0160961032 0.003323344185)
(15.09808317 0.01471980443 0.003639549972)
(15.10199184 0.01328548063 0.003990742109)
(15.10604812 0.01182363762 0.004397671686)
(15.1101988 0.0103701798 0.004857485775)
(15.11430767 0.008954163107 0.005391972873)
(15.11836383 0.007549865076 0.006058915074)
(15.12190765 0.006252709053 0.006825446045)
(15.12489991 0.004958392294 0.007791122214)
(15.12686173 0.003772779469 0.008927232829)
(15.12764405 0.002739811972 0.01023789852)
(15.12701914 0.001649059756 0.01156038874)
(15.12487034 0.0004707930407 0.01304186717)
(15.12110614 -0.0009756740585 0.01421226765)
(15.11618191 -0.002954539423 0.01544410371)
(15.11020562 -0.005897542442 0.0164288138)
(15.10486305 -0.009415612233 0.01750756317)
(15.09883021 -0.01494613001 0.01794650864)
(15.09782758 -0.01967434075 0.01931671271)
(15.09050082 -0.02317579684 0.01403130288)
(15.1134646 -0.03168304761 0.01673766299)
(15.12593189 -0.03571881572 0.02054158359)
(15.13133734 -0.0404488799 0.02338539444)
(15.13172143 -0.04539235595 0.02357122877)
(15.12941966 -0.05019060539 0.02407081999)
(15.12651344 -0.05391675526 0.026959156)
(15.12288607 -0.0567461376 0.03087466198)
(15.11930284 -0.05865292307 0.03386854636)
(15.11310125 -0.06046687401 0.03650812132)
(15.1094964 -0.06178166358 0.03839596213)
(15.09662454 -0.06339541504 0.03974907429)
(15.11113908 -0.06464784233 0.0392650908)
(15.02766792 -0.07964955454 0.03711970025)
(15.20924936 -0.05973716489 -0.03691101079)
(15.01641874 0.003324234834 0.006041772413)
(15.02265175 0.004867518353 0.007287808736)
(15.02746781 0.005895805822 0.01127981201)
(15.03395297 0.00649480171 0.008501496207)
(15.04073401 0.006793567356 0.004450132021)
(15.04678148 0.006432191719 0.002520096037)
(15.0515818 0.005998288982 0.002716846042)
(15.05632227 0.005396547694 0.003184274455)
(15.06109145 0.004637351958 0.003272270173)
(15.06582672 0.003831943163 0.003164144173)
(15.07040927 0.003003394943 0.003040814513)
(15.0748365 0.002091168839 0.002963107699)
(15.07923066 0.001032833751 0.002936272396)
(15.08363254 -0.000214159053 0.002969788208)
(15.08810809 -0.001657828016 0.003073605321)
(15.09270938 -0.003285895805 0.003236417925)
(15.09745983 -0.00507842612 0.003444448239)
(15.10237989 -0.007010484242 0.003696170515)
(15.10750065 -0.009047696764 0.004004000144)
(15.11282154 -0.01114403138 0.004381852375)
(15.11826824 -0.01324848033 0.004841749096)
(15.12374138 -0.01529978947 0.005376618786)
(15.12908299 -0.01726705152 0.00605829172)
(15.13407879 -0.01909279134 0.00683881822)
(15.13840112 -0.02071132245 0.007751071525)
(15.14182346 -0.02218411116 0.008848386387)
(15.14390201 -0.0235110602 0.01010330813)
(15.14440704 -0.02470491486 0.01133492679)
(15.14323994 -0.02603257947 0.01264899962)
(15.14028687 -0.02778483277 0.01381172354)
(15.13590069 -0.03014698802 0.01500091979)
(15.13055227 -0.03359191167 0.01569059825)
(15.12567264 -0.03780708452 0.01621217787)
(15.12102538 -0.04379346348 0.01555562953)
(15.12092352 -0.04935138997 0.01581285803)
(15.11499414 -0.05651842495 0.01001541412)
(15.13673188 -0.06240926165 0.009016034698)
(15.14874413 -0.06863865999 0.01130387845)
(15.15499124 -0.07554883396 0.01282012552)
(15.15736728 -0.08279966508 0.01272246231)
(15.15788556 -0.08936996621 0.01354084832)
(15.15826486 -0.09427603869 0.01647363156)
(15.15757891 -0.09849063119 0.02036724121)
(15.15681115 -0.1011846361 0.02301229733)
(15.15198071 -0.1045363216 0.02575887594)
(15.153511 -0.1066070794 0.02683485193)
(15.13144143 -0.1076988727 0.02790518823)
(15.17760895 -0.1111230113 0.02497968648)
(15.0490262 -0.1242110321 0.02114420447)
(15.21592681 -0.1327887243 -0.05345831375)
(15.01613616 0.002214417882 0.005755423264)
(15.02339116 0.004361180076 0.006235314946)
(15.02844612 0.007559646467 0.01023471918)
(15.03725509 0.0101322 0.007669569558)
(15.04389031 0.01222503352 0.006411457547)
(15.04941206 0.01317456689 0.005155462669)
(15.05485355 0.01349800369 0.0045289662)
(15.05919433 0.01344471295 0.005432231203)
(15.06347826 0.01295955941 0.006466873998)
(15.06777563 0.01212812119 0.006947829685)
(15.07195921 0.01106079847 0.007140635576)
(15.07593114 0.009808541476 0.007282560832)
(15.0798473 0.008333208015 0.007417672753)
(15.08379907 0.00662827229 0.007503454246)
(15.08790072 0.004680792784 0.007592923494)
(15.09222303 0.002454476014 0.007726809245)
(15.09681924 -5.088489092e-05 0.007907975381)
(15.10172769 -0.002805595533 0.008142547689)
(15.10695329 -0.005753862286 0.008443191354)
(15.11247399 -0.008842321647 0.008827916364)
(15.11824748 -0.01199972676 0.009291949589)
(15.12411899 -0.01510419633 0.009849144274)
(15.13008949 -0.01814282596 0.01054031762)
(15.13563589 -0.02085963314 0.0113528001)
(15.14081386 -0.02336578523 0.01235362056)
(15.14483732 -0.02541950026 0.01344238944)
(15.14771143 -0.02735683509 0.01481579473)
(15.14866653 -0.02885094244 0.01607898623)
(15.14782305 -0.03050982404 0.01747208652)
(15.14491845 -0.03258607935 0.01875334726)
(15.14021633 -0.03535625252 0.01970171918)
(15.13444198 -0.0391753384 0.02007771615)
(15.12880938 -0.04405767306 0.01950968831)
(15.12431323 -0.05039579371 0.01760583106)
(15.12252218 -0.0573104861 0.01452173847)
(15.12238634 -0.06654836367 0.008864789407)
(15.12895285 -0.07330400966 0.00536821311)
(15.1362175 -0.08118961035 0.003541497591)
(15.14147299 -0.09062928133 0.001278437386)
(15.14538648 -0.1008075451 -0.0006539669696)
(15.14878696 -0.1091247729 -0.0005557612959)
(15.15200897 -0.1155894113 0.001363017498)
(15.15403986 -0.1208940035 0.003754247478)
(15.15497901 -0.1251471593 0.005802730689)
(15.15294624 -0.1294025287 0.007717958222)
(15.15458839 -0.1333484288 0.009544644813)
(15.13939691 -0.1372375195 0.01091886253)
(15.17989671 -0.1407000748 0.008213571204)
(15.04869549 -0.146165067 0.008825642427)
(15.21665605 -0.1468299839 -0.06299905651)
(15.01618664 0.001414090125 0.006017245456)
(15.02228862 0.002664466554 0.006207147365)
(15.02622851 0.004056216023 0.01044756913)
(15.03449365 0.004828837637 0.007794756991)
(15.03993587 0.005483413494 0.005768407109)
(15.04404776 0.005534550719 0.004688599279)
(15.04838798 0.004614040923 0.003516793728)
(15.05273128 0.003443758442 0.00406868046)
(15.05708105 0.002163361184 0.005029195805)
(15.06159715 0.0006761470818 0.005411321775)
(15.06617294 -0.001066882663 0.005444866402)
(15.07069608 -0.00307299882 0.005463657166)
(15.07518224 -0.005358553964 0.005475662026)
(15.079692 -0.007895272696 0.005514798935)
(15.08427154 -0.01067796478 0.005564507009)
(15.08898471 -0.01372673487 0.005632163963)
(15.09391698 -0.01705032709 0.00574290425)
(15.09914238 -0.02064723834 0.005916751343)
(15.1047129 -0.02448445885 0.00616534743)
(15.11064092 -0.02849118868 0.006496482455)
(15.11691734 -0.03257095626 0.006918100401)
(15.12340002 -0.03656721083 0.007440301427)
(15.1301285 -0.04042819292 0.008100485484)
(15.13645922 -0.04379777695 0.008898062201)
(15.14264478 -0.04685664418 0.009911609545)
(15.14752111 -0.04916822438 0.0109984766)
(15.15135147 -0.05117268124 0.01244435697)
(15.15281679 -0.05253568171 0.01377406042)
(15.15225329 -0.05381572409 0.01513550884)
(15.14932157 -0.05537812066 0.01631827325)
(15.14435406 -0.05759835254 0.01710654347)
(15.13811857 -0.0608236435 0.01692383981)
(15.13191923 -0.06501228245 0.01526178655)
(15.12697304 -0.07025398343 0.01161137292)
(15.12434571 -0.07639696204 0.006612175507)
(15.1241834 -0.08376702105 -0.0001089502377)
(15.12658633 -0.09051307787 -0.006032973406)
(15.13014424 -0.09827968299 -0.01135745057)
(15.13406491 -0.1071818117 -0.01604656609)
(15.13907529 -0.1167494101 -0.01877906377)
(15.14464294 -0.1246588002 -0.01888429382)
(15.15065044 -0.1320060568 -0.01743182659)
(15.15452311 -0.1374943202 -0.01577914967)
(15.15748535 -0.1424493234 -0.0140790094)
(15.15543384 -0.147184152 -0.01223210814)
(15.16421634 -0.1511236264 -0.01045686369)
(15.14431396 -0.1575550152 -0.008117537105)
(15.18505568 -0.1586971293 -0.01136661095)
(15.05442716 -0.1633897982 -0.00926826476)
(15.22276141 -0.1656664089 -0.07999783401)
(15.01626906 0.001069699076 0.005988943256)
(15.02258409 0.002094053797 0.006005013321)
(15.02696372 0.003662006677 0.009954715835)
(15.0359031 0.004740421822 0.007211305681)
(15.04212957 0.005955459436 0.004863327958)
(15.04593013 0.006842636911 0.003487927064)
(15.04996129 0.007121664579 0.002864730053)
(15.05423938 0.006695972049 0.00401526581)
(15.05851809 0.005894197164 0.005372225857)
(15.06255674 0.004912453836 0.005939944828)
(15.0664316 0.003693459963 0.006099401602)
(15.07018733 0.002103432962 0.006174749784)
(15.07391398 6.68449927e-05 0.006247291575)
(15.0777322 -0.002447272964 0.006321056211)
(15.08170966 -0.00544115078 0.006408166024)
(15.08590581 -0.008901283721 0.006525915316)
(15.09039398 -0.01281459221 0.006681778706)
(15.09525244 -0.01715441226 0.006888074502)
(15.10055348 -0.02186895415 0.00715693395)
(15.10634488 -0.02686906222 0.007499434499)
(15.11264148 -0.03202389732 0.007930401212)
(15.1193655 -0.03714721914 0.008472793859)
(15.12644728 -0.04206055285 0.009134693968)
(15.13347446 -0.04645511435 0.009964056826)
(15.14034051 -0.05026476487 0.01098108003)
(15.14611964 -0.05310617249 0.01215747837)
(15.15066094 -0.05521037368 0.01367992949)
(15.15271893 -0.0564223577 0.0151690501)
(15.15188559 -0.05713628296 0.01651686848)
(15.14900361 -0.05802404783 0.01767770291)
(15.14406425 -0.05942978574 0.0181564623)
(15.13656196 -0.06169511758 0.01732205309)
(15.12942588 -0.06452596599 0.0145146168)
(15.12353853 -0.06841623384 0.008889602563)
(15.12001297 -0.07348942308 0.001290934114)
(15.1187966 -0.08003780844 -0.006925667611)
(15.11954485 -0.08753379866 -0.01488016849)
(15.12142857 -0.09606828137 -0.0228398049)
(15.1242747 -0.1052053967 -0.02970326133)
(15.12963625 -0.1150679389 -0.03436141231)
(15.13568292 -0.1237078449 -0.03548265101)
(15.14378944 -0.1328955549 -0.0347452059)
(15.14972375 -0.1397290678 -0.03381816435)
(15.15406195 -0.145161142 -0.03285515163)
(15.15380162 -0.1540332711 -0.03029867113)
(15.16132815 -0.1579560442 -0.02859153409)
(15.14334114 -0.1633919842 -0.02569777095)
(15.18516964 -0.164701079 -0.02865642511)
(15.05674378 -0.1695756495 -0.02349000357)
(15.22779757 -0.1711732877 -0.09360542094)
(15.01623648 0.0006463109783 0.006041803344)
(15.02214632 0.00122558034 0.006002326787)
(15.02563642 0.001907342009 0.01004431301)
(15.03443988 0.002203111665 0.007162098759)
(15.03935722 0.002255096337 0.004586168508)
(15.04316294 0.002134644801 0.002327460109)
(15.04547814 0.001784801345 0.001287135361)
(15.04891989 0.0006063025085 0.002572344936)
(15.05282223 -0.001196854539 0.004303993057)
(15.0569971 -0.003291697236 0.005074608775)
(15.06111939 -0.005623615006 0.00526873552)
(15.06496012 -0.008193689528 0.005356739793)
(15.0686822 -0.01110816701 0.00542877763)
(15.07241387 -0.01443833749 0.005483986444)
(15.07624363 -0.01824030378 0.005546094552)
(15.08024911 -0.02254936533 0.005636459774)
(15.08452814 -0.02738381175 0.005763271504)
(15.08919241 -0.03273631018 0.005937063463)
(15.09435451 -0.03856167782 0.006166851256)
(15.1001101 -0.04476627129 0.0064627768)
(15.10652269 -0.05119232426 0.006841205584)
(15.11359989 -0.05761998536 0.007331405855)
(15.12122683 -0.06374633928 0.007946993622)
(15.12917885 -0.06927161444 0.008740335083)
(15.13715223 -0.07388092384 0.00975149226)
(15.14424287 -0.07716130093 0.0109815427)
(15.15005026 -0.0791320661 0.01246328662)
(15.15321074 -0.07965350898 0.01422605938)
(15.1534649 -0.07944021317 0.01540560616)
(15.15033183 -0.07907394026 0.01636332225)
(15.14430984 -0.07876920834 0.01657777018)
(15.1364697 -0.07909727699 0.01501377212)
(15.12850002 -0.07997519808 0.0108691452)
(15.12164905 -0.08142209806 0.002929941726)
(15.11665871 -0.08322118275 -0.007342489201)
(15.11345001 -0.08555934993 -0.01863703596)
(15.1122598 -0.08852291791 -0.02825424701)
(15.11284845 -0.0933640497 -0.03749130944)
(15.11521709 -0.1002097273 -0.04579941624)
(15.12139669 -0.1093422467 -0.05206381456)
(15.12729637 -0.1174124891 -0.05367911913)
(15.13832884 -0.1282617033 -0.05294713835)
(15.14454817 -0.1354123807 -0.05214491766)
(15.15180195 -0.1414326797 -0.05154378621)
(15.15154072 -0.1515690342 -0.04833663591)
(15.15980226 -0.155041069 -0.04660598631)
(15.14390541 -0.1600422944 -0.04324699013)
(15.18657554 -0.1610998554 -0.04629777786)
(15.05971475 -0.1645915376 -0.03890919972)
(15.23324076 -0.1655437488 -0.1087791985)
(15.01629873 0.0004500501905 0.006025997894)
(15.02221062 0.0008920588454 0.005948315007)
(15.02617808 0.001497711927 0.009869301199)
(15.03464164 0.001865466581 0.007039371212)
(15.04043382 0.002149349068 0.004166431811)
(15.04378674 0.002314388711 0.001831373447)
(15.04693557 0.002309841778 0.0004275619184)
(15.04910337 0.002040275976 0.001550226023)
(15.05268861 0.001216237734 0.00356971796)
(15.05638445 -0.0001811565933 0.004724678942)
(15.05987506 -0.002016317007 0.005117912502)
(15.06312092 -0.004292269737 0.005297363246)
(15.06619593 -0.007068791056 0.005431689947)
(15.06923705 -0.01042903341 0.005541186698)
(15.07235489 -0.01443554882 0.005649248577)
(15.07564782 -0.01913096794 0.005770958556)
(15.07923219 -0.02454415046 0.005917502576)
(15.0832499 -0.03068011784 0.00609391332)
(15.08785932 -0.03750130527 0.006314794978)
(15.09322371 -0.04490640097 0.006586775254)
(15.09947445 -0.0527095946 0.006929032155)
(15.10672161 -0.06062921161 0.00736065171)
(15.11482507 -0.06821835475 0.007901724209)
(15.12394692 -0.07527288139 0.008645300001)
(15.13287949 -0.08076312187 0.009576982581)
(15.14204819 -0.08478725129 0.01085954877)
(15.14908004 -0.08648788854 0.01236484615)
(15.15423998 -0.08635035905 0.01374692735)
(15.15516054 -0.08439105102 0.01549577051)
(15.15219559 -0.08234967936 0.01645655969)
(15.14539805 -0.07937460986 0.01658437006)
(15.13708493 -0.0772291784 0.01442988186)
(15.1285029 -0.07583352801 0.008826057669)
(15.12191699 -0.07506439555 -0.001145356605)
(15.11773227 -0.07507078426 -0.01370846826)
(15.11518909 -0.07592833868 -0.02767432115)
(15.11288337 -0.07780999632 -0.03939852865)
(15.11029051 -0.08176318424 -0.05047604301)
(15.10950754 -0.08800824333 -0.06011860289)
(15.11359733 -0.09652715216 -0.06705433991)
(15.11930522 -0.1050328842 -0.06884025747)
(15.13006473 -0.1162257617 -0.06786978484)
(15.13728371 -0.1248162835 -0.06658358659)
(15.1455312 -0.1312174786 -0.06587036581)
(15.1474765 -0.1423755323 -0.06215557211)
(15.15619599 -0.1468676061 -0.06009521825)
(15.14367368 -0.1532826619 -0.05562627071)
(15.18814303 -0.1553598252 -0.0581884635)
(15.06284364 -0.1604047842 -0.04815938476)
(15.23839567 -0.1621085081 -0.1175440743)
(15.01631674 0.0002074328157 0.00604790646)
(15.02189936 0.000406460093 0.005954512278)
(15.02572132 0.0005523996862 0.00992369251)
(15.03341625 0.0004902550018 0.007128899252)
(15.03899571 0.000111338012 0.004049318132)
(15.04157519 -0.0003839784367 0.001683117151)
(15.04459093 -0.001411726403 -6.402684493e-05)
(15.04614644 -0.002342351389 0.0009686309586)
(15.04899016 -0.00381691514 0.002967241078)
(15.05238355 -0.005848385205 0.004250117554)
(15.05567419 -0.008389292768 0.004808397466)
(15.05866537 -0.01132506116 0.005028135546)
(15.06137311 -0.01474141049 0.005152654764)
(15.06394556 -0.01875846418 0.005253566834)
(15.06651609 -0.02347114553 0.005355378772)
(15.06919839 -0.02895791451 0.005461017081)
(15.07212776 -0.03528637616 0.005580579648)
(15.07548255 -0.04249743608 0.005710971689)
(15.07948256 -0.05058912406 0.00586243359)
(15.08436472 -0.05946882923 0.006030505931)
(15.09040597 -0.06895545786 0.006243891683)
(15.09773749 -0.07874020483 0.006519439575)
(15.10676196 -0.08828838823 0.006886108287)
(15.11709857 -0.09697656834 0.007421670556)
(15.12761529 -0.1039623885 0.008174209488)
(15.13959451 -0.1088550153 0.009393127404)
(15.14811276 -0.1102423937 0.01074386429)
(15.15666067 -0.1089754585 0.0123133212)
(15.15895244 -0.1049532261 0.01417891132)
(15.15643104 -0.1007013019 0.0154502124)
(15.1496103 -0.09529127184 0.01553219763)
(15.14152698 -0.09136055925 0.01307149455)
(15.13153623 -0.08738041406 0.005706757617)
(15.12306999 -0.08259254943 -0.007241185157)
(15.11657774 -0.07684253211 -0.02409818834)
(15.11148332 -0.07012173894 -0.04316167473)
(15.10710657 -0.06413023567 -0.0596490933)
(15.10330811 -0.06256098678 -0.07329681538)
(15.1019223 -0.06610967181 -0.0841581029)
(15.10543049 -0.07327693656 -0.09150156851)
(15.11163929 -0.0824194781 -0.09341375124)
(15.12242365 -0.09450530576 -0.09213377287)
(15.13170071 -0.1048109149 -0.09092947562)
(15.13955057 -0.112470228 -0.09012014313)
(15.14395301 -0.1248805534 -0.08633454353)
(15.15279259 -0.1297328036 -0.08452031001)
(15.14175786 -0.1349418239 -0.07980379623)
(15.18686589 -0.1362465253 -0.08268657593)
(15.06390563 -0.1396249784 -0.06919379707)
(15.24397885 -0.1404247832 -0.1380605552)
(15.01632426 0.0001002911981 0.006034264122)
(15.02195263 0.0002243695445 0.005935855454)
(15.02579903 0.000355060256 0.009877325747)
(15.03355841 0.00037182673 0.007053126733)
(15.03909847 0.0002311300776 0.003929742248)
(15.04161501 -1.378385558e-05 0.001480030899)
(15.04445917 -0.0006485300041 -0.0004126152879)
(15.04585773 -0.001298086205 0.0005090592658)
(15.04813706 -0.002456600193 0.002518811088)
(15.05092617 -0.003931941314 0.003844887297)
(15.05368244 -0.006053488665 0.004593530183)
(15.05611553 -0.008716197861 0.004922202227)
(15.05815079 -0.01198372536 0.005086704527)
(15.05993659 -0.01597340053 0.005212760452)
(15.06162745 -0.0208003971 0.005333678705)
(15.06335157 -0.02657432777 0.005442222882)
(15.06526342 -0.033399335 0.005540055064)
(15.06757207 -0.04135507682 0.00561800762)
(15.07059066 -0.05048105657 0.005677312125)
(15.07457288 -0.06074261239 0.005707909357)
(15.08027332 -0.07197819076 0.005719907201)
(15.08763445 -0.0838681009 0.005731280294)
(15.09715506 -0.0956871982 0.005829407107)
(15.10908565 -0.1064479382 0.006089753107)
(15.12197105 -0.1151762912 0.006686881488)
(15.13588997 -0.1208106878 0.007672708475)
(15.1493855 -0.1220643058 0.009191290334)
(15.15937264 -0.119000718 0.01095652897)
(15.16486246 -0.1119289609 0.01301992269)
(15.16236339 -0.1031203931 0.01473189731)
(15.15573674 -0.09354495805 0.01516779253)
(15.14622156 -0.08609644599 0.01222781707)
(15.13837325 -0.08156162907 0.005265231752)
(15.13345198 -0.07852298985 -0.006897315159)
(15.13133704 -0.07569108257 -0.02186696064)
(15.12910658 -0.07053085129 -0.03783189941)
(15.12199833 -0.06245856264 -0.0548858346)
(15.11055163 -0.05508642681 -0.07184465372)
(15.0995845 -0.05195738309 -0.09010356271)
(15.09870159 -0.05507603447 -0.09880880831)
(15.10266121 -0.06201916913 -0.1015657308)
(15.11178163 -0.07233717688 -0.1014726956)
(15.12164787 -0.08294578145 -0.1009376254)
(15.12947007 -0.09250316932 -0.09938883289)
(15.13981745 -0.1026018119 -0.09642736565)
(15.14863442 -0.1118055272 -0.0920297775)
(15.14296748 -0.1180274638 -0.08681382608)
(15.19012157 -0.1219856627 -0.08839097279)
(15.06825351 -0.1261158982 -0.07231784745)
(15.24870352 -0.1274705803 -0.1406596012)
(15.01632172 -5.213296501e-05 0.006042904564)
(15.02178602 -6.682477004e-05 0.005936734549)
(15.02553346 -0.0002582308765 0.009907533075)
(15.03293023 -0.0005030195872 0.007099800047)
(15.03829733 -0.001058562875 0.003908660335)
(15.04039361 -0.001613872472 0.001487003241)
(15.04298989 -0.002778525458 -0.0004948136447)
(15.043949 -0.003710245041 0.0003838754184)
(15.04582453 -0.005336275493 0.002368862001)
(15.04817041 -0.007080785158 0.00369511826)
(15.0504335 -0.009470355993 0.00447330799)
(15.05232788 -0.01243490122 0.004820785849)
(15.05373231 -0.01603242069 0.004978882511)
(15.05476522 -0.02038179626 0.005091770921)
(15.05557152 -0.02562537059 0.00519014656)
(15.05627795 -0.03191614535 0.005260942466)
(15.05705406 -0.03941299055 0.005289022167)
(15.05812501 -0.04825218613 0.005253653122)
(15.05991103 -0.05855555407 0.005135399138)
(15.06284334 -0.07043896193 0.004907166628)
(15.06775754 -0.08374709155 0.004597488384)
(15.07487203 -0.09806602367 0.00420099624)
(15.08433335 -0.1126603363 0.003815030327)
(15.09797079 -0.1262189701 0.003463704068)
(15.11421731 -0.1372489319 0.003423207927)
(15.13206725 -0.1443114297 0.00398430166)
(15.15050035 -0.1461334541 0.005431369907)
(15.16570771 -0.1417413809 0.007823965981)
(15.17465257 -0.1331924607 0.01060531589)
(15.17386888 -0.1221054442 0.01312963337)
(15.1673324 -0.1109307912 0.01425080596)
(15.15452076 -0.09972323214 0.01200947384)
(15.14087848 -0.08931448003 0.005164167598)
(15.13077395 -0.07694005109 -0.007576553076)
(15.12595131 -0.06136315662 -0.02430134755)
(15.12587544 -0.04000166123 -0.04160884049)
(15.12292494 -0.0187371364 -0.06255711078)
(15.11474393 -0.01006556202 -0.08116200612)
(15.10325041 -0.00996478486 -0.1010070549)
(15.09673601 -0.0170722667 -0.1143069049)
(15.09783792 -0.02661153066 -0.1191952924)
(15.10464108 -0.03974489306 -0.1210441631)
(15.11277287 -0.05314594928 -0.1213120031)
(15.12179674 -0.06625355422 -0.1201245617)
(15.13048718 -0.07556100582 -0.1189776285)
(15.14101061 -0.08568249723 -0.1154131845)
(15.13511992 -0.09114045126 -0.1109656178)
(15.18230155 -0.09540266908 -0.1125465652)
(15.06585005 -0.09583310821 -0.09437533457)
(15.25138411 -0.09586119705 -0.1620155307)
(15.01634155 -6.756448325e-05 0.006039047918)
(15.02176205 -8.441553273e-05 0.005928152924)
(15.02554854 -0.0002214463626 0.009891337412)
(15.03276172 -0.0003882573225 0.007094645942)
(15.03814098 -0.0007862877295 0.003831747614)
(15.0399697 -0.0011802668 0.001432713479)
(15.04250081 -0.002126624129 -0.0006278870338)
(15.0430794 -0.002838166507 0.0002483708831)
(15.04466181 -0.004220976845 0.002251064254)
(15.04653917 -0.00566869058 0.003541902479)
(15.04826642 -0.007749822341 0.004343072272)
(15.04953726 -0.01042629749 0.004723238127)
(15.05019959 -0.01377597798 0.004896951954)
(15.05034305 -0.01793177129 0.005013542943)
(15.05009635 -0.02306106851 0.005090963582)
(15.04956575 -0.02935563989 0.005127636313)
(15.0489539 -0.0370267805 0.005059474636)
(15.04838193 -0.0462830491 0.004889238377)
(15.04872128 -0.05744011455 0.004500253359)
(15.05014503 -0.07065365277 0.003956729843)
(15.05338492 -0.08580583409 0.003181509063)
(15.05967967 -0.1024433906 0.002204108757)
(15.06953721 -0.1199661136 0.0009779173582)
(15.08442111 -0.1369505978 -0.000242203208)
(15.10515448 -0.1509250411 -0.001397813463)
(15.1284589 -0.159115263 -0.001524481226)
(15.1518327 -0.1589767079 -0.0001750066822)
(15.17213775 -0.1498155809 0.002857678279)
(15.1839852 -0.1324797416 0.00722562298)
(15.18474039 -0.1149830266 0.01068171498)
(15.17773652 -0.09851364111 0.01238263701)
(15.16852658 -0.08832276444 0.01099107806)
(15.16280433 -0.08264695345 0.004107436713)
(15.16493143 -0.08011422361 -0.004849086634)
(15.17236934 -0.07731125074 -0.01270169391)
(15.17052088 -0.06030471846 -0.01474099834)
(15.14718593 -0.0309457699 -0.02823441687)
(15.11408209 -0.001845467621 -0.04994136358)
(15.09017437 0.01592186443 -0.07607943999)
(15.07855867 0.01693634281 -0.09163759078)
(15.07801111 0.01042684677 -0.09739007039)
(15.08306958 -0.001203534775 -0.1001728965)
(15.09224836 -0.01427981389 -0.1010324726)
(15.104291 -0.02799944024 -0.09990712645)
(15.11542171 -0.03881181071 -0.09756040926)
(15.13296731 -0.05165763211 -0.09184189663)
(15.12919923 -0.05889675174 -0.08593366387)
(15.17868111 -0.06387345906 -0.08617407506)
(15.06358035 -0.06509758442 -0.06896457608)
(15.24500161 -0.06562899605 -0.1378735396)
(15.01634368 -0.0001510413588 0.006044288858)
(15.02166378 -0.0002407420009 0.005927193444)
(15.02543116 -0.000513273938 0.009904888495)
(15.0323723 -0.0007736136293 0.007132541877)
(15.03769096 -0.001315055693 0.003804048765)
(15.03916795 -0.001782938646 0.001455773991)
(15.04156053 -0.002908377893 -0.000672374394)
(15.04171975 -0.003609721116 0.0001982886152)
(15.04298059 -0.005096427942 0.002238399412)
(15.04443916 -0.006561939987 0.003498488659)
(15.04565629 -0.008639123935 0.004306866733)
(15.0463263 -0.01128134023 0.004679506076)
(15.0462649 -0.01457173881 0.004847933238)
(15.04552398 -0.01865379982 0.004943009791)
(15.04419676 -0.02370952407 0.004989056016)
(15.04237432 -0.0299750497 0.004942645771)
(15.04017815 -0.03768179136 0.004768447868)
(15.03788036 -0.04718183016 0.004357423363)
(15.03639 -0.05895844765 0.00367939284)
(15.0353662 -0.07318854813 0.002652932526)
(15.03662898 -0.08985397877 0.001216328318)
(15.04109503 -0.1088161946 -0.0008439701757)
(15.05163465 -0.1295253837 -0.003503032903)
(15.06778774 -0.150655223 -0.006593797455)
(15.09268237 -0.1695890067 -0.00946132331)
(15.12606797 -0.1825987734 -0.01122918701)
(15.16171585 -0.1867541489 -0.01013381499)
(15.19422647 -0.1781982626 -0.004513704839)
(15.21076362 -0.1603276529 0.002967974815)
(15.20909914 -0.1394628494 0.008973585724)
(15.19382287 -0.1187231542 0.01196832858)
(15.16838898 -0.09837422371 0.01027583818)
(15.15205623 -0.08373299416 0.004377959114)
(15.13446439 -0.06532064372 -0.01233652789)
(15.15828932 -0.06179096319 -0.01909569591)
(15.16826023 -0.002879889755 -0.02600903848)
(15.17916342 0.02927207308 -0.027520937)
(15.15141159 0.03334867623 -0.04060063602)
(15.11570295 0.03658094971 -0.06570313744)
(15.09008627 0.03286440816 -0.09157009063)
(15.07995768 0.02083811453 -0.106732092)
(15.08090483 0.004327793474 -0.1160614015)
(15.08800358 -0.01153227617 -0.1218294267)
(15.09927956 -0.02672815875 -0.1249944043)
(15.1105122 -0.03723121241 -0.1267676279)
(15.12619258 -0.05044100115 -0.1238662921)
(15.12597335 -0.05518917814 -0.1211180191)
(15.17655054 -0.061327166 -0.1203256912)
(15.06884689 -0.05856746266 -0.1029710433)
(15.25657207 -0.05833713812 -0.1695612267)
(15.01634324 -0.00013313053 0.006040072873)
(15.02165469 -0.0002055821063 0.005922529974)
(15.02533516 -0.0003988942134 0.009907615477)
(15.03229041 -0.0005977085283 0.007106668179)
(15.03740339 -0.0009894135488 0.003794202751)
(15.03883372 -0.001353842302 0.0013972867)
(15.04095721 -0.002225849203 -0.0007214117666)
(15.04090273 -0.002750484715 0.0001484790465)
(15.04189764 -0.003974075017 0.002225466727)
(15.0429636 -0.005143774443 0.003446164285)
(15.04372122 -0.006857580518 0.004243632191)
(15.04382859 -0.0090799111 0.004621904806)
(15.04306401 -0.01189977217 0.004790209415)
(15.04144957 -0.01546562901 0.004869936985)
(15.0390141 -0.01996602562 0.004875894645)
(15.03588192 -0.02566229816 0.004758806473)
(15.03186222 -0.03282395271 0.004432108961)
(15.0280032 -0.04186705657 0.003776814231)
(15.0238565 -0.05351726248 0.002685604955)