/*--------------------------------*- C++ -*----------------------------------*\
| =========                 |                                                 |
| \\      /  F ield         | OpenFOAM: The Open Source CFD Toolbox           |
|  \\    /   O peration     | Version:  2.2.1                                 |
|   \\  /    A nd           | Web:      www.OpenFOAM.org                      |
|    \\/     M anipulation  |                                                 |
\*---------------------------------------------------------------------------*/
FoamFile
{
    version     2.0;
    format      ascii;
    class       volScalarField;
    location    "8";
    object      epsilon;
}
// * * * * * * * * * * * * * * * * * * * * * * * * * * * * * * * * * * * * * //

dimensions      [0 2 -3 0 0 0 0];

internalField   nonuniform List<scalar> 
86889
(
0.1173506068
0.04959753882
0.02658846272
0.01742947687
0.0135686966
0.01219102787
0.01217719849
0.01297992501
0.01427904214
0.01586701596
0.01759909319
0.01937441832
0.02112304064
0.022795466
0.02436360904
0.02581437899
0.02714403708
0.02835114119
0.02944435781
0.03043284077
0.0313291349
0.03214849065
0.03290485681
0.03361065585
0.0342805444
0.03492678412
0.03554991012
0.03616664842
0.03679512551
0.03748510652
0.03851395384
0.04030582813
0.04306042823
0.04585522721
0.04572060168
0.04456042076
0.04365683179
0.04298009492
0.04256838529
0.04259822302
0.04326883799
0.04421642962
0.04529119298
0.0464247428
0.04761719454
0.04881314668
0.05011770639
0.050799475
0.05366083767
0.1275209819
0.1106576675
0.0502576079
0.0263459189
0.01615435687
0.01146881284
0.009332721095
0.008545899421
0.008557010357
0.009073343624
0.009914166864
0.01095578989
0.0121091096
0.01330863029
0.01450677303
0.01567055445
0.01677765792
0.01781537451
0.01877594174
0.01965951413
0.02046586346
0.02120135568
0.02187087801
0.02248468863
0.02305223009
0.02357987466
0.0240782796
0.02453968639
0.02499531565
0.0254183159
0.02584146721
0.02625411353
0.02666018465
0.02706603341
0.02737771141
0.02732320056
0.02635588242
0.02533797179
0.02448079881
0.02384273094
0.02371964534
0.02437303038
0.02523752692
0.0261576792
0.02705879468
0.02793529672
0.0287249616
0.02950582605
0.02947163215
0.03079812815
0.09154074888
0.1096058317
0.05157716147
0.02582588906
0.0152039085
0.01009821446
0.007672925021
0.006779543597
0.006709867274
0.007103759462
0.007773648614
0.008608759812
0.009535711726
0.01050277588
0.01147316554
0.01242138432
0.01333053973
0.01419081333
0.0149969584
0.01574600501
0.01643823175
0.01707921896
0.01767374682
0.01822583314
0.01874177373
0.01922816074
0.01969063898
0.02013295085
0.02055865879
0.02097157274
0.02136780306
0.02174961881
0.02209746518
0.02241052649
0.02260710995
0.02254264725
0.02180848484
0.02097774412
0.0202838223
0.01976221288
0.01945876204
0.01987270978
0.0204970125
0.02119433248
0.02188881093
0.02258658988
0.02320848275
0.02397262054
0.02411473554
0.02418518612
0.08384983559
0.109409207
0.05122825063
0.02488416345
0.01446338173
0.009477935883
0.00694627813
0.005886180853
0.005694016443
0.00597928061
0.006541740749
0.007273308688
0.008107295183
0.008996037664
0.009902790761
0.0108023782
0.01167735363
0.01251511986
0.01330796239
0.0140533621
0.01475106673
0.01540227665
0.01601038384
0.01657789524
0.01711044478
0.01761350606
0.01809212921
0.01855110048
0.01899078376
0.01941528959
0.01981979922
0.02019744778
0.02053289869
0.02080472052
0.02092658211
0.02059105364
0.01990976547
0.01925182766
0.01872951539
0.01834367376
0.01830235659
0.01864407234
0.01909079397
0.01956774001
0.02003306498
0.02050184499
0.02090194302
0.02147497575
0.02161418692
0.02212766106
0.08296391717
0.1094045398
0.05114040121
0.02478990565
0.01429765787
0.009258501552
0.006725951449
0.005556887857
0.005258298549
0.005433552036
0.005882215687
0.00649874179
0.007222316101
0.008008446565
0.008824591528
0.00964594631
0.01045417004
0.01123689339
0.01198613166
0.01269696113
0.01336729219
0.01399689597
0.01458846394
0.01514443154
0.01566857139
0.01616725797
0.01664400178
0.01710395763
0.01754186457
0.01796844859
0.0183719312
0.01873919646
0.01906131583
0.01931814009
0.01945373085
0.01933768456
0.01875627217
0.01826582551
0.01787894826
0.01758954019
0.01765160849
0.01788295934
0.01817221969
0.01849232245
0.01882125236
0.01918118138
0.01950277903
0.02004679501
0.02014569941
0.02074802703
0.08245282898
0.1094039665
0.05111853275
0.02477079575
0.01427256025
0.009164428325
0.006608726845
0.005409490221
0.00507360559
0.00520813817
0.005615222343
0.006190535651
0.006873627974
0.007622156432
0.008403772191
0.009194237623
0.009975873264
0.01073597194
0.01146594028
0.01216040813
0.01281692196
0.01343477417
0.01401542384
0.01456228564
0.01507848132
0.01557060614
0.01604077704
0.01649287684
0.01692995347
0.0173463861
0.01773774799
0.01810087539
0.0184207474
0.01867481037
0.01882906807
0.01883509781
0.01861877943
0.0181366516
0.0178002205
0.01768364323
0.0176786475
0.01768444623
0.01771053788
0.01784488588
0.01801621779
0.01825653152
0.01850800126
0.01902608069
0.01918740258
0.01980578183
0.08169937419
0.1094033265
0.05111352362
0.02476630549
0.01426555286
0.009154765497
0.00657325398
0.005347082389
0.004992481442
0.005101973645
0.00548139082
0.006027722888
0.006681343176
0.007400385839
0.008152830739
0.008914940639
0.009669288378
0.0104033193
0.01110854818
0.01177967269
0.01241409322
0.01301118101
0.01357169264
0.01409881851
0.0145968033
0.01507077185
0.01552427845
0.01596384846
0.01639111861
0.01680457834
0.01719740207
0.01756548654
0.01789501587
0.01815455539
0.01831224507
0.01835855019
0.01827857783
0.01809218153
0.01790291731
0.01774037332
0.01758880193
0.01738697461
0.01720159113
0.01719305844
0.01727098232
0.0174554485
0.01767208156
0.01815166526
0.01840808407
0.01896042805
0.08093237943
0.1094026816
0.05111241456
0.02476553234
0.01426423375
0.009152813905
0.006570731873
0.005322323422
0.004950518578
0.005047913732
0.005414626828
0.005947672534
0.006588022813
0.007294207838
0.008034240786
0.00878447917
0.00952741381
0.01025049519
0.01094491913
0.01160535392
0.01222878632
0.01281473601
0.01336395522
0.01388005594
0.0143654632
0.01482691853
0.01526994257
0.01570152508
0.01612682245
0.0165580306
0.0169730324
0.01736469802
0.01771073504
0.01797592665
0.01813071602
0.01817670679
0.018128632
0.01802607768
0.01787858631
0.01768205427
0.01745019784
0.01715604491
0.01688865537
0.01677955404
0.01680180543
0.01694513729
0.01713372158
0.01759123423
0.01790840234
0.01846221932
0.08042513398
0.1094020167
0.05111167588
0.02476484281
0.01426342076
0.009151854531
0.006569647353
0.005320239781
0.004935870636
0.005019421333
0.005376449911
0.00589838926
0.006526942489
0.007220965758
0.007948569346
0.008686250759
0.009416520008
0.01012679993
0.01080807573
0.0114548909
0.01206380946
0.01263411434
0.01316670177
0.01366645895
0.0141366005
0.01458437403
0.01501324196
0.01543363677
0.01586110471
0.01629618366
0.01672118267
0.01712548326
0.01748186295
0.01774991873
0.01790896745
0.01795840204
0.01790346318
0.01777569842
0.01758152086
0.01731744836
0.01701374165
0.01669137781
0.01638198779
0.01623656418
0.01619781297
0.01628397817
0.01640464215
0.01678654315
0.01722206101
0.0176359738
0.07954781118
0.1094013537
0.05111119699
0.02476455977
0.01426322699
0.009151691512
0.006569467795
0.00531881704
0.004933302567
0.005004144606
0.005357053542
0.0058743062
0.006498505509
0.007188416497
0.007912028298
0.008645624892
0.009371680735
0.01007718348
0.01075291304
0.01139288504
0.01199379392
0.01255604544
0.01308048394
0.01357216297
0.01403427958
0.01447138297
0.01489011739
0.0153047715
0.0157268209
0.01616021117
0.01659258196
0.01700297904
0.01735758365
0.01761985894
0.01775379976
0.01777212099
0.01772301251
0.01764282342
0.01748188686
0.01717927195
0.01688130858
0.01657583719
0.01633383761
0.01620541427
0.01612578725
0.01614875385
0.01626088192
0.01662639848
0.01709296197
0.01756233493
0.07946352004
0.1094006917
0.05111064983
0.02476411108
0.01426282986
0.009151308872
0.006569091311
0.005318141265
0.004932427385
0.005003370717
0.00535602875
0.00587253041
0.006495665928
0.00718396687
0.007905684729
0.0086368021
0.009359686533
0.01006078315
0.01073065886
0.0113635077
0.01195663455
0.01251067961
0.01302398954
0.01349761261
0.01393596773
0.01434510144
0.01473305996
0.01512319382
0.01553040137
0.01596846791
0.01641611656
0.01685191832
0.01722948045
0.01751642178
0.0176630495
0.01765344999
0.01753596166
0.0173384569
0.01712865028
0.01683894051
0.01657853967
0.01635440591
0.01620272824
0.01609744102
0.01603352975
0.0160574389
0.01616822706
0.01640246284
0.01691182715
0.01704330887
0.07871015885
0.1094001036
0.05111021833
0.02476383318
0.01426262265
0.009151126119
0.006568912141
0.005317281922
0.004931021642
0.005001833271
0.005354109071
0.005870379192
0.006493464613
0.007181656925
0.007903188422
0.008633371242
0.009354872784
0.01005264365
0.01071877885
0.01134640629
0.01193450772
0.01247669081
0.01297276481
0.01341298062
0.01380873101
0.01416302385
0.01450337708
0.0148469379
0.01523565408
0.01568461672
0.01615485334
0.0166087677
0.01699653023
0.01727077435
0.01745557277
0.01759218498
0.01784623002
0.0179834931
0.01788840203
0.0177855167
0.01755394316
0.01729055233
0.01702075032
0.01680937926
0.01666593571
0.01663812931
0.01669781614
0.01705509893
0.01743785937
0.01790713753
0.07979624104
0.1093995441
0.05110981467
0.02476353678
0.01426237462
0.009150893107
0.006568683189
0.005316818027
0.004930303021
0.005001304154
0.0053533802
0.005869579367
0.00649189331
0.007179236724
0.007899311366
0.008627762284
0.009345619705
0.01003956397
0.01069992644
0.01132215314
0.01189646712
0.01241743535
0.012873075
0.01326076045
0.01356565029
0.01381308418
0.01402130351
0.01426518747
0.01461874005
0.01513049235
0.01572588796
0.01632326084
0.01682987281
0.0172082364
0.01728062622
0.0172377182
0.01631255707
0.01570530846
0.01545668293
0.0152697198
0.01513771096
0.01506193236
0.01500927677
0.01498009064
0.01497469557
0.01505665519
0.01521148442
0.01548305884
0.01601619331
0.01596326968
0.07744644732
0.1093990742
0.05110944145
0.02476327857
0.01426217643
0.009150726961
0.006568520782
0.005316316744
0.004929595647
0.005000667463
0.005352510586
0.005868238049
0.006490257517
0.00717721019
0.007896537386
0.008623492751
0.009338891103
0.0100286729
0.0106862424
0.01130018895
0.01186015224
0.01234901997
0.0127514953
0.01304437513
0.01320919549
0.01324202993
0.0132482003
0.01332537342
0.01351494148
0.01398585722
0.0145954424
0.01528593667
0.01584641499
0.01629402153
0.01649431945
0.01693543629
0.01814571198
0.0181306616
0.01700881252
0.01644858274
0.01625440218
0.01600050836
0.01572193519
0.01546627874
0.01535005721
0.01534565269
0.01543133945
0.01564556538
0.01613157462
0.01613806588
0.07762201309
0.1093986762
0.0511091147
0.02476303284
0.01426197635
0.009150553275
0.006568353191
0.005315998319
0.004929256435
0.005000572055
0.00535229724
0.005867766108
0.006489325441
0.007175592282
0.00789387573
0.008619097198
0.009330901374
0.01001591146
0.01066446952
0.01126709457
0.01180755372
0.01225632112
0.01258142595
0.0127320665
0.01271862237
0.01277841324
0.01290170174
0.01307998936
0.01320459941
0.01388751695
0.01468812217
0.01565779333
0.01650840114
0.01700840486
0.01722644324
0.01722789927
0.01916998678
0.02191848752
0.02408445377
0.02462988013
0.02477008532
0.02436056867
0.02366519948
0.02290506067
0.02217446414
0.02163307061
0.02118196644
0.02101470384
0.02070614694
0.0210793593
0.08241918413
0.1093983897
0.05110888697
0.02476287172
0.01426185345
0.009150457218
0.006568257782
0.005315745748
0.00492902919
0.005000453306
0.005352276115
0.005867478586
0.006488702441
0.007174532881
0.007892088998
0.008615972608
0.009325221905
0.01000542052
0.0106450249
0.01123259519
0.0117495819
0.01215191277
0.01238340819
0.01237189593
0.01243299493
0.01256879058
0.01279303742
0.0131489703
0.01273858269
0.01313266005
0.012637767
0.0132460615
0.01429236962
0.01524992751
0.0155125806
0.0160131361
0.01734974694
0.0178700595
0.01775051207
0.01864157969
0.01918432822
0.01922978457
0.01883620358
0.01823536065
0.01754175547
0.01726634875
0.01707504915
0.01712180453
0.01738276515
0.01783842214
0.07977749794
0.1093982069
0.05110873819
0.02476276063
0.01426176476
0.009150382413
0.006568186749
0.005315613133
0.004928997835
0.005000506783
0.005352891705
0.005868050811
0.006488992932
0.007174401924
0.007891278015
0.008614048246
0.009321143597
0.009997999926
0.01063059495
0.01120388239
0.01170315354
0.01206346392
0.01222093893
0.01220434084
0.0123111532
0.0125742807
0.01299586221
0.01348910813
0.01371803405
0.01422702526
0.01377484788
0.01481743467
0.01728409299
0.01982472595
0.02018942417
0.01986620515
0.01915099544
0.01817898587
0.0182501116
0.01945085974
0.02056171393
0.02113966565
0.02114012039
0.02052503155
0.0196266186
0.01918947002
0.01877124528
0.01862864256
0.0187117078
0.0187670138
0.08039740536
0.109398146
0.05110869637
0.02476273282
0.01426174416
0.009150366405
0.006568171705
0.005315569877
0.004928971416
0.005000440912
0.005353108653
0.005868288946
0.006489120832
0.007174372173
0.007891001898
0.008613487044
0.009319562768
0.009995627309
0.01062260252
0.01119277676
0.01167176544
0.01200751305
0.01208166627
0.01205761007
0.01218891136
0.01253720681
0.01288421545
0.013252236
0.01381448244
0.01344613319
0.01731962613
0.02185829876
0.02918093895
0.03611331955
0.03490861396
0.03312142873
0.03164640127
0.02873077357
0.02660359121
0.02557676552
0.02612635115
0.02682334097
0.02681887372
0.02630760555
0.02559433186
0.02524437585
0.02494226919
0.02488357329
0.02463068502
0.02495517065
0.08593035419
0.1093982012
0.05110875501
0.02476277462
0.01426177427
0.009150390615
0.006568194289
0.005315616325
0.004928943937
0.005000461641
0.00535263746
0.005867786367
0.00648876259
0.007174197016
0.00789109827
0.008613889016
0.009321014182
0.009997823062
0.01063049857
0.01120377011
0.01170307496
0.01206324156
0.01222062521
0.0122055831
0.01231200354
0.01257521952
0.0129971111
0.01349016744
0.01371823311
0.01493421054
0.01738275523
0.02634294348
0.04363048877
0.06253335934
0.05356229266
0.04695111459
0.04737315005
0.03939288537
0.03474464533
0.03135561965
0.02867197952
0.02714157602
0.0260797435
0.02483564928
0.02354986542
0.02278374037
0.02211563397
0.02175806834
0.02152728969
0.0213996718
0.08254241385
0.1093983777
0.05110890136
0.02476288602
0.01426186313
0.009150465894
0.006568267662
0.005315765877
0.00492900457
0.00500042145
0.005352161887
0.00586740681
0.006488678006
0.00717454469
0.007892133327
0.008616039875
0.009325325858
0.01000551068
0.01064529839
0.01123291739
0.01174982819
0.0121521955
0.01238353261
0.01237237477
0.01243291288
0.01256755661
0.01279128887
0.01314916099
0.01274484469
0.01374277237
0.01930601661
0.03632181121
0.07116486335
0.1782898634
0.1382867986
0.1102099113
0.09800319756
0.07650820034
0.0601113277
0.04962902028
0.04263206501
0.036882847
0.03261533521
0.0293139818
0.02669959298
0.02482752264
0.02342928751
0.02244526069
0.02198676506
0.02133722375
0.08261362234
0.1093986646
0.05110912832
0.02476304875
0.01426199475
0.009150574732
0.006568374281
0.005316023157
0.004929248176
0.005000513144
0.005352256228
0.00586777374
0.006489363329
0.007175650183
0.007893950646
0.008619188482
0.009331016818
0.01001605266
0.01066476403
0.01126727567
0.01180776227
0.01225664939
0.01258137495
0.01273178795
0.01271771655
0.01277500702
0.01289718539
0.01307869776
0.01353752956
0.01570885534
0.02366849335
0.04409474773
0.09083230718
0.2991264104
0.02952350579
0.02929171147
0.04021560502
0.0391956893
0.03677955982
0.03496339292
0.03387790598
0.0329083838
0.03240666565
0.03221802972
0.03212386329
0.0321534844
0.03227216871
0.0325257425
0.03303409786
0.03317183371
0.1035005895
0.1093990524
0.05110945087
0.02476329196
0.01426219294
0.009150742935
0.006568540326
0.005316360684
0.004929639012
0.005000681873
0.005352595135
0.005868376588
0.006490428895
0.007177408879
0.007896755561
0.008623737507
0.009339144671
0.01002895533
0.01068656927
0.01130076347
0.01186045546
0.01234988553
0.01275197708
0.01304527366
0.01321103758
0.01324810334
0.01325699634
0.01333424094
0.01371548784
0.01556902305
0.02176905293
0.03859767723
0.07258457255
0.1790396702
0.1395749902
0.1107865826
0.0926079774
0.07328533804
0.05774688912
0.04747315984
0.04102100149
0.03646836925
0.03327594797
0.03086665781
0.02901371337
0.02761645282
0.02659287502
0.02601925814
0.0254151068
0.02522834666
0.08843823798
0.1093995222
0.05110980844
0.02476353607
0.01426237953
0.009150903838
0.006568699153
0.005316847774
0.004930373324
0.005001333196
0.005353444207
0.005869678519
0.006492012794
0.007179366246
0.007899449826
0.008627913949
0.009345785478
0.01003976678
0.0107001387
0.01132261508
0.01189693797
0.01241847076
0.01287395499
0.01326410211
0.01357800877
0.01383211101
0.01403038059
0.01429018011
0.01471172444
0.01597288916
0.01940157864
0.0285501584
0.0453727644
0.06332978075
0.05455826028
0.04708806996
0.04159444993
0.03578938343
0.03133612002
0.02803219294
0.02579799461
0.02408608386
0.02273867192
0.02167997141
0.02084993938
0.02024693742
0.01985378095
0.01971212049
0.01988602467
0.01984982909
0.08169372421
0.1094000668
0.05111019538
0.02476382019
0.01426261634
0.009151131766
0.006568926975
0.005317351641
0.004931160111
0.005001959098
0.005354288194
0.005870596277
0.006493704786
0.007181919645
0.00790348384
0.008633711659
0.009355236009
0.01005308612
0.0107191546
0.01134709849
0.01193544107
0.01247803995
0.01297475831
0.01342120305
0.0138282799
0.01419032405
0.0145306759
0.01487696388
0.01527005106
0.01593911049
0.01741861132
0.02112269219
0.02771330091
0.03360624873
0.03044962994
0.02772944885
0.02557334898
0.023450258
0.02165998635
0.02046981523
0.01955126205
0.01883704927
0.01826516437
0.01781888631
0.01747862421
0.01730335556
0.01725107849
0.01735198326
0.01775295231
0.01766690121
0.07927448042
0.1094006558
0.051110633
0.02476410633
0.01426283425
0.009151321827
0.006569111079
0.005318184837
0.004932504596
0.005003421989
0.005356125493
0.00587265384
0.006495800615
0.007184085067
0.00790580613
0.008636913401
0.009359810895
0.01006092683
0.01073086706
0.0113637567
0.01195711701
0.01251121158
0.01302545386
0.01350189289
0.01394482314
0.01435570568
0.01474321605
0.01513083371
0.01553717946
0.01600693358
0.01671177385
0.01803834409
0.02026998293
0.022272045
0.02161243409
0.02049996503
0.01959471139
0.01879280715
0.01815794124
0.01768008453
0.01730382236
0.01698918588
0.01676862131
0.01661042229
0.01650625752
0.01649144844
0.01657215137
0.01684414739
0.01730859579
0.0176098324
0.07952095374
0.1094013062
0.05111115074
0.02476452653
0.01426321303
0.009151686388
0.006569474237
0.005318902803
0.004933463
0.005004294317
0.005357282324
0.005874577127
0.006498819265
0.007188789696
0.007912485425
0.008646170715
0.009372343888
0.01007797901
0.01075385834
0.01139399776
0.01199509963
0.01255750351
0.01308203324
0.01357364132
0.01403622133
0.01447276848
0.01489070224
0.01530389012
0.01572690241
0.01616424836
0.01664300171
0.01722268901
0.01799172431
0.01866692953
0.01864086972
0.01805329322
0.01754506579
0.01713842742
0.0168257454
0.01656720303
0.01636751191
0.01614527394
0.01597209116
0.01589971796
0.01586678191
0.0159271976
0.01607122874
0.01643391796
0.01692925303
0.01739784771
0.0793127568
0.109401967
0.05111162292
0.02476481427
0.01426341763
0.009151873097
0.00656967984
0.005320372314
0.004936009125
0.005019529566
0.005376621062
0.005898563062
0.006527068248
0.007221039027
0.007948603239
0.008686259606
0.009416524571
0.01012682624
0.01080814117
0.01145503196
0.01206405704
0.01263448328
0.01316716276
0.0136670726
0.01413744184
0.01458523554
0.01501364958
0.01543368228
0.01586108505
0.01629621437
0.01672453108
0.01715052395
0.01757774286
0.01793001513
0.01807610016
0.01803923504
0.01793426097
0.01779213907
0.01760536942
0.0173578707
0.01707370505
0.01675028386
0.01645513231
0.0163409176
0.01633810133
0.01647740619
0.01664228719
0.01708394679
0.01747235418
0.01798150113
0.0799420318
0.1094026218
0.05111232131
0.02476546056
0.01426418434
0.009152786108
0.006570718166
0.005322165967
0.004950342758
0.005047812286
0.005414645798
0.005947767343
0.006588203735
0.007294521515
0.008034706861
0.008785121372
0.009528257386
0.01025157669
0.01094622796
0.01160688328
0.01223046779
0.01281649334
0.01336562326
0.01388123121
0.01436631072
0.01482700782
0.01526908696
0.01569989179
0.01612424069
0.01655538102
0.01697112512
0.01736578262
0.01772035737
0.01799417337
0.01814480557
0.01817551439
0.0181101414
0.01799068079
0.01783699114
0.01763864495
0.0174107488
0.01712716809
0.01687770282
0.01679144761
0.01683554616
0.01700566589
0.01721675708
0.01769532796
0.01800117347
0.0185854884
0.08055100288
0.1094032652
0.05111346073
0.02476627027
0.014265544
0.009154774424
0.006573264852
0.005347234031
0.004992847313
0.005102479625
0.005482322406
0.006028666769
0.00668209663
0.007400984549
0.008153318213
0.008915347542
0.009669631583
0.01040363147
0.01110875748
0.01177971572
0.01241380917
0.01301053158
0.01357100353
0.0140982107
0.01459595519
0.0150692812
0.01552398345
0.01596290273
0.01638975174
0.0168038413
0.0171950579
0.01756428014
0.01789559923
0.01815821905
0.01832030533
0.01837210054
0.01830561557
0.01813248035
0.01795258952
0.01779717448
0.01765060352
0.01745324447
0.01727360158
0.01724906938
0.01733679407
0.01753884429
0.01777546228
0.01828016397
0.01852298731
0.01913251008
0.08112870596
0.109403896
0.05111837601
0.0247706584
0.01427245227
0.009164323242
0.006608653309
0.005409278663
0.005073278115
0.005207650523
0.005614281332
0.006189692584
0.006872803885
0.00762157373
0.008403516761
0.009194330689
0.009976300115
0.01073661713
0.0114666908
0.01216123029
0.01281781167
0.01343602789
0.01401692387
0.01456443194
0.01508140033
0.01557285005
0.01604373956
0.0164968634
0.01693518573
0.01735085578
0.01774495501
0.0181078838
0.01842886419
0.0186843579
0.01884127705
0.01885131371
0.01863621976
0.01815368389
0.01781602794
0.01769947386
0.01769621734
0.01770779863
0.01774210063
0.017873116
0.01805338869
0.01831112042
0.01857574365
0.01910842614
0.0192599379
0.01990255257
0.08179602952
0.1094044816
0.05114048894
0.02479000461
0.01429771289
0.009258557368
0.006726041241
0.005557631758
0.005259521267
0.005435016422
0.005883859729
0.006500458559
0.007224423477
0.008010763112
0.008827656409
0.009649160597
0.01045733555
0.0112400345
0.01198924654
0.01270015355
0.01337079842
0.01400076331
0.01459270211
0.01514932052
0.01567405881
0.01617570216
0.01664958686
0.01711238261
0.01754987597
0.01797215422
0.01837711774
0.01874677356
0.01907153395
0.019333594
0.01947627128
0.01936264342
0.01877874792
0.01828739588
0.01790036363
0.01761017586
0.01768083732
0.01792162229
0.01822092035
0.01855057642
0.01888966489
0.01926234531
0.01959325498
0.02014417215
0.02025840763
0.0208828723
0.0825821345
0.1094173848
0.0512318108
0.02488721592
0.01446519986
0.009479061623
0.006947009432
0.005886138981
0.00569351458
0.005978603071
0.006541057358
0.0072726985
0.008106864009
0.008995870662
0.009902233229
0.01080223407
0.0116774273
0.01251524577
0.01330836833
0.01405452972
0.01475274195
0.01540409785
0.01601236711
0.01658019101
0.01711251164
0.01761776486
0.01809631658
0.0185568823
0.01899814863
0.01941876184
0.01982129427
0.02019455314
0.02052920831
0.02080529644
0.02093227143
0.02060235034
0.01992155039
0.01926422988
0.01874263722
0.01835703161
0.01831835404
0.01866370734
0.01911531181
0.01959897253
0.02007251888
0.02055046565
0.02096211154
0.02153494372
0.02167486235
0.0222060309
0.08303015994
0.1096137308
0.05158137597
0.02583022353
0.01520670274
0.01010020441
0.007676381611
0.006783678257
0.006714321288
0.0071087656
0.007779238957
0.008614903985
0.00954245728
0.01051014085
0.01148112997
0.01242969551
0.01333979459
0.01420119744
0.01500841758
0.01575763017
0.01645052415
0.0170909079
0.01768557294
0.01823690223
0.01875368871
0.01924023758
0.01970372001
0.02014726709
0.02057492269
0.02098889666
0.02138743031
0.02176874595
0.02211771214
0.02243340103
0.02263243169
0.02257640146
0.02183891591
0.02100519364
0.02030931118
0.01978636979
0.0194931034
0.01991556855
0.02054848839
0.02125561437
0.02195892404
0.02266789156
0.02328789907
0.02406873131
0.02423584778
0.02433556723
0.08398091929
0.1106576639
0.05025753779
0.02634533789
0.01614963814
0.01146245714
0.009326874903
0.008540399018
0.008551472557
0.009067713148
0.009908461807
0.01094993204
0.01210301066
0.01330231891
0.01450016273
0.01566358569
0.01677060012
0.01780796277
0.01876914974
0.01965221325
0.02045946991
0.02119391297
0.02186348813
0.02247685186
0.02304521352
0.02357169687
0.02407305002
0.02453861799
0.02499383906
0.02542558281
0.02584303059
0.02625512055
0.02665904693
0.02707714119
0.0273878652
0.02733857598
0.02637077498
0.02535215226
0.02449503932
0.02385726418
0.02373710972
0.02439679559
0.0252681609
0.02619591203
0.02710511748
0.02799134459
0.02879181172
0.02959227446
0.02956651575
0.03089409706
0.09161333516
0.1173505325
0.04959737632
0.02658842713
0.0174302675
0.01357115927
0.01219484411
0.01218125095
0.01298361974
0.01428220474
0.01586950613
0.01760081716
0.01937528618
0.02112294291
0.02279465021
0.02436209812
0.02581264556
0.02714136095
0.02834751657
0.02943878151
0.03042740993
0.03132554943
0.03214583328
0.03290266737
0.03360808612
0.03427275453
0.03490953675
0.03553267681
0.03613887252
0.0367670807
0.03746549972
0.03849669444
0.04028461462
0.04305146343
0.04584500901
0.04572305914
0.04456609664
0.0436653108
0.0429911645
0.04258190961
0.04262528058
0.04330749957
0.04426517811
0.04534865472
0.04648972057
0.04768918595
0.04889239401
0.05019820711
0.05088886711
0.05378150488
0.1276288866
0.1103609049
0.04587605512
0.02162299074
0.01249994883
0.008517563151
0.006748174294
0.006075694467
0.00603061594
0.006384133882
0.007004595634
0.007804350234
0.008718627802
0.009697041913
0.01070013038
0.0116975104
0.01266615404
0.01358966289
0.01445666815
0.0152612048
0.0159996369
0.01667334073
0.01728321788
0.01783372349
0.01832834183
0.01877242825
0.01916948768
0.01953628405
0.01985667942
0.02024997508
0.02095333631
0.02263199419
0.02612563896
0.0319256248
0.03838635575
0.03719994596
0.03413584586
0.03146194082
0.02913287351
0.02725357709
0.02571896936
0.02450335916
0.0235639297
0.02284823103
0.02231245154
0.02192140786
0.0216479893
0.02147550749
0.02160657747
0.02245923947
0.08364853338
0.1003267333
0.04236354567
0.02071876523
0.01103674408
0.006477174834
0.004105570276
0.002768008735
0.001963448892
0.001454058281
0.001118176115
0.0008895429019
0.0007300820432
0.0006168586029
0.0005354811999
0.0004765973297
0.0004339450279
0.0004031719831
0.0003812251421
0.0003659226489
0.0003556255497
0.0003493733666
0.0003463659856
0.0003463225256
0.0003491102692
0.0003545474486
0.0003629727462
0.0003737507918
0.0003877994259
0.0004046114736
0.0004285768615
0.0004675937322
0.0005403651115
0.0006678817551
0.0008228580409
0.0007886787578
0.0007405473642
0.0006967212944
0.000659104207
0.0006407595622
0.0006367103104
0.0006473994384
0.0006713896141
0.0007073099321
0.0007529314668
0.000807495098
0.0008705995221
0.0009318275374
0.002404825635
0.002280970408
0.008359501933
0.09870644613
0.04169511573
0.02048568526
0.01095699527
0.006447507818
0.004090513977
0.002755404159
0.001948522429
0.001434573429
0.001092893139
0.0008576799552
0.0006911172873
0.0005704738642
0.0004815635532
0.0004152160978
0.0003653420085
0.0003277496592
0.0002996149166
0.0002788758251
0.0002641608151
0.0002544276366
0.0002489408356
0.0002472344959
0.0002489718224
0.0002539561801
0.0002620894658
0.0002733797083
0.0002875289831
0.0003044321403
0.0003234988458
0.0003438825848
0.0003637142843
0.000380839605
0.0003919482881
0.0003943774926
0.0003763673789
0.000342786887
0.0003274318809
0.0003411363036
0.0003692215803
0.0004067840952
0.0004527836187
0.0005074458833
0.0005696253315
0.0006398933921
0.0007196977094
0.0008054528819
0.002370085736
0.002237721849
0.005280514803
0.09880069395
0.04216212829
0.0208145134
0.01101700105
0.006481763134
0.004107601272
0.002763852606
0.001952422844
0.001435992609
0.00109294112
0.0008569702582
0.0006900145606
0.0005692046605
0.0004802374132
0.0004138862862
0.0003640267844
0.0003264851867
0.0002983417326
0.0002775521748
0.0002626729221
0.000252698991
0.000246885735
0.0002447469706
0.0002459875382
0.0002504584802
0.000258046574
0.0002687679163
0.000282418031
0.0002987263482
0.0003171560059
0.0003361302129
0.000353539486
0.0003663980557
0.0003709495142
0.0003618836259
0.0003296770945
0.0003020403289
0.00027843361
0.0002682146643
0.0002765532135
0.0002955346328
0.000322490552
0.0003566380908
0.0003974468972
0.0004455168678
0.000503143797
0.0008381887241
0.003571916693
0.003316789901
0.006165122905
0.09920875765
0.04287529946
0.02082348479
0.01093814843
0.006447554849
0.004087369369
0.002750110813
0.001942266929
0.001427754202
0.001085595698
0.0008498401209
0.0006826290069
0.0005612168251
0.0004714032159
0.0004040138001
0.0003529544698
0.0003140839799
0.0002845201688
0.0002622352886
0.0002457926368
0.0002341698559
0.0002266637936
0.0002227869386
0.000222231872
0.0002248965306
0.0002306055515
0.0002394673499
0.0002510913637
0.0002652646566
0.0002808853545
0.0002970417293
0.000311311993
0.000320530664
0.0003214417562
0.0003110801926
0.0002858284435
0.0002628399748
0.0002433484481
0.0002303840805
0.0002281398821
0.0002346828269
0.0002493231633
0.0002720756832
0.0003025889136
0.0003430862058
0.0006760921807
0.001174571957
0.003674423125
0.003387357499
0.006170360681
0.09920927982
0.04287344101
0.02082688542
0.01093254448
0.006446696908
0.004078267469
0.002744070678
0.001937929894
0.001424408826
0.001082853833
0.0008474920329
0.000680546121
0.0005593251305
0.0004696502658
0.0004023605512
0.000351370176
0.0003125367035
0.0002829744066
0.0002606378872
0.0002440757688
0.0002322558472
0.0002244647562
0.0002202349725
0.0002192911093
0.0002215215371
0.0002267261503
0.0002351086949
0.0002462398849
0.0002331646494
0.000252008528
0.0003310878363
0.0003782826141
0.000378822855
0.0003689917129
0.0003522171291
0.0003230073721
0.0002964294265
0.0002737785937
0.0002549651932
0.0002398524414
0.0002274928939
0.0002199509865
0.0002291026212
0.0002748133156
0.000421795574