/*--------------------------------*- C++ -*----------------------------------*\
| =========                 |                                                 |
| \\      /  F ield         | OpenFOAM: The Open Source CFD Toolbox           |
|  \\    /   O peration     | Version:  2.2.1                                 |
|   \\  /    A nd           | Web:      www.OpenFOAM.org                      |
|    \\/     M anipulation  |                                                 |
\*---------------------------------------------------------------------------*/
FoamFile
{
    version     2.0;
    format      ascii;
    class       volScalarField;
    location    "8";
    object      k;
}
// * * * * * * * * * * * * * * * * * * * * * * * * * * * * * * * * * * * * * //

dimensions      [0 2 -2 0 0 0 0];

internalField   nonuniform List<scalar> 
86889
(
0.01361570515
0.008933518014
0.007385520193
0.007156868309
0.007789854222
0.009072417497
0.01083913795
0.01294664172
0.01526983582
0.01770905671
0.02018803502
0.02265100771
0.02505784729
0.02737882298
0.02959696009
0.03170468201
0.03370059925
0.03558457181
0.03736327584
0.03904405544
0.04063668583
0.04215398868
0.04360770332
0.04500842828
0.04636880676
0.04770096002
0.04900940832
0.05030861417
0.05161499153
0.05296675953
0.05455959002
0.05670142626
0.05953508344
0.06243320418
0.06335429442
0.06357624866
0.06397687204
0.06456493812
0.06537465509
0.06652768213
0.06817006452
0.07004449389
0.07204463568
0.07412655041
0.0763000684
0.07854760427
0.08097404752
0.08317273287
0.08677145335
0.1332774576
0.01309531114
0.009722208458
0.007202884045
0.006115906285
0.005909497519
0.006321647782
0.007190134498
0.008395300442
0.009841305948
0.01144893588
0.01315353047
0.01490381431
0.01665979057
0.01839092756
0.0200754032
0.02169809101
0.0232500496
0.02472540847
0.02612396035
0.02744515801
0.02869382794
0.02987391156
0.03099318369
0.03205921289
0.03307814728
0.03405980196
0.03499982208
0.03592293523
0.03681021584
0.03768726868
0.0385477
0.03939684087
0.04024070733
0.04100866801
0.04148592709
0.04125944576
0.04101109886
0.04095227923
0.04107860998
0.04164332111
0.04289198043
0.04433644619
0.04584238809
0.04734705077
0.04885303531
0.05031872228
0.05182917203
0.05267049779
0.05404401874
0.09967898318
0.01300593605
0.01050153322
0.007002787037
0.005417911695
0.004707849687
0.004691891049
0.005304842732
0.006296297674
0.007510124706
0.008857450876
0.01028117901
0.01174022767
0.01320375995
0.01464876417
0.01605866255
0.01742217074
0.01873255423
0.01998607384
0.02118061092
0.02231627664
0.0233972715
0.0244276417
0.02541106578
0.02635271955
0.02725813458
0.02813268737
0.02898048368
0.02980549996
0.03061169738
0.03139711283
0.03216420552
0.03289896083
0.03360036718
0.03420651121
0.03460035921
0.0344682434
0.0342603918
0.03422968466
0.03434191261
0.03462583474
0.03554129474
0.03664721825
0.03782586924
0.03901367864
0.04022254852
0.04138784261
0.0427168324
0.04355817997
0.0426728626
0.088213141
0.01298775841
0.01028593948
0.006645147876
0.005058409106
0.004322683315
0.004104097821
0.004497627775
0.005351032276
0.006466270447
0.00773380271
0.009092668937
0.01050329396
0.01193515995
0.01336301402
0.0147691336
0.01614085772
0.0174686118
0.01874630651
0.01997187153
0.02114505635
0.02226672152
0.02333955806
0.02436580808
0.02535043086
0.02629834107
0.02721428915
0.02810303074
0.02896581266
0.02980700478
0.03062351656
0.03141015554
0.03215414712
0.03283692096
0.03338543986
0.03354084249
0.03338603342
0.03318554661
0.0331302919
0.03320321848
0.0335667573
0.03426522138
0.03506098485
0.03589181343
0.03672381838
0.03757436852
0.03838359972
0.03938372804
0.04009581286
0.03974298589
0.08606788068
0.0129874132
0.01023148151
0.006596728766
0.00497584674
0.004189545469
0.003937555945
0.004196069807
0.004935371324
0.00594406216
0.007108631526
0.008368081713
0.009686669858
0.0110353448
0.01239157749
0.01373729469
0.01505862132
0.01634594125
0.01759287012
0.01879531128
0.01995141265
0.0210608402
0.02212579945
0.02314841535
0.02413211819
0.02508274828
0.02600382417
0.02690050137
0.02776903856
0.02861940166
0.02944222999
0.03022628116
0.03096322904
0.03163462225
0.03219065001
0.03251536265
0.03241804293
0.03235455509
0.03237136603
0.032466379
0.03285783285
0.03339673575
0.03398914284
0.03461335638
0.03525157574
0.03592761433
0.03659340066
0.037515909
0.03816221982
0.03791904787
0.08483329065
0.01298730762
0.01021824188
0.006584399764
0.004959562532
0.004133340579
0.003848780888
0.004058684904
0.004750310897
0.005712863957
0.006833838482
0.008052349767
0.009332234902
0.01064591037
0.01197056105
0.01328829757
0.0145856389
0.01585255245
0.01708202709
0.01826951446
0.01941282584
0.02051118146
0.02156569762
0.02257934222
0.02355499842
0.024498757
0.02541290587
0.02630153022
0.02716802753
0.02800808297
0.02881730001
0.02959470568
0.03032886334
0.03099748371
0.03156737416
0.03199309644
0.03220547132
0.0321497471
0.03219539209
0.03242091118
0.03273823096
0.03301951219
0.03329229638
0.03371790997
0.0341733072
0.03469559417
0.03525875681
0.03613927322
0.03682519052
0.03664574519
0.0837605463
0.01298724175
0.01021565241
0.006581547083
0.004955176555
0.004126851844
0.003822928252
0.00400174287
0.004665837178
0.005595530269
0.006681837045
0.007864942651
0.009109303513
0.01038763837
0.01167730844
0.01296077585
0.01422473853
0.01545925914
0.01665740363
0.01781468674
0.01892880049
0.01999905387
0.02102595517
0.02201224724
0.02296179109
0.02387941158
0.02476867012
0.02563603697
0.02648383851
0.0273119629
0.02811608338
0.02889343328
0.02963479413
0.03030843338
0.03088105596
0.03134160168
0.03166961061
0.03187074854
0.0320471929
0.0322328442
0.03241714292
0.0324648231
0.03246889839
0.03272627402
0.03308151597
0.03353706536
0.03405967255
0.03490578214
0.03567954639
0.03547764118
0.08270695516
0.01298718426
0.01021513421
0.0065809483
0.004954216713
0.004125387523
0.003820895484
0.003978739541
0.004619732312
0.005530156295
0.00659694912
0.007760221617
0.008984949521
0.01024419279
0.0115153429
0.01278092363
0.01402754403
0.01524527147
0.01642685086
0.01756772521
0.01866518487
0.01971863057
0.02072851546
0.021697944
0.02262914716
0.02352827158
0.02440066221
0.02525326191
0.02609228737
0.02693270538
0.02775748928
0.02855850476
0.02931800123
0.03000015777
0.03057321812
0.03103623885
0.03139472698
0.031675884
0.03189461054
0.03205050679
0.03216043783
0.03212162188
0.03204471733
0.03217077529
0.03246787552
0.03287760775
0.03337055332
0.03419847069
0.03502451856
0.03483305235
0.08208831433
0.01298712531
0.01021502828
0.006580783807
0.004953950524
0.004124981134
0.003820328793
0.003977012984
0.004604003652
0.005495427305
0.00654742377
0.007694421307
0.008902117214
0.01014390823
0.01139731122
0.01264497141
0.0138735465
0.01507309631
0.0162361492
0.01735803111
0.01843559361
0.01946797248
0.02045570756
0.02140312862
0.02231402201
0.02319508236
0.02404910037
0.02488564602
0.02572090118
0.02656186004
0.02739289037
0.02820304223
0.02897016727
0.02965307918
0.03022804253
0.03069345588
0.03104408819
0.03129889715
0.0314713298
0.03155976351
0.03159456779
0.03151291658
0.03137934888
0.03148446902
0.03172802962
0.03208615183
0.03251667557
0.03326086407
0.03415944987
0.03381090988
0.08107194477
0.01298706714
0.01021493727
0.00658071019
0.004953880469
0.004124899178
0.003820211652
0.003975393169
0.00460095716
0.005476141635
0.006521471081
0.007661272928
0.008862143849
0.01009736821
0.01134439411
0.01258567146
0.01380784588
0.01500059801
0.0161561611
0.01726930985
0.01833697139
0.01935936942
0.02033784796
0.02127700939
0.02218041668
0.02305275031
0.02389842333
0.0247299286
0.0255594772
0.02639533654
0.02722941328
0.0280419048
0.02880451447
0.02948004641
0.03003042306
0.03046271707
0.03081045215
0.0311056747
0.03130429224
0.03135314223
0.03138501654
0.03131820885
0.03130182289
0.03144350738
0.03162664612
0.03193779684
0.0323579711
0.03306983041
0.03397638879
0.03366361376
0.08094192785
0.01298700875
0.01021489115
0.006580649478
0.004953807874
0.004124804479
0.003820090505
0.00397489929
0.004600224161
0.005475544786
0.006520648121
0.007659693247
0.008859571596
0.01009326907
0.01133836998
0.01257711391
0.01379609903
0.01498452431
0.01613434815
0.01724039929
0.01830046189
0.0193156985
0.02028569081
0.02121091477
0.02209405272
0.02294173451
0.02376035277
0.02456989842
0.02538437655
0.02621907277
0.02705960535
0.02788756215
0.02866414812
0.02935713107
0.02991770521
0.03032691687
0.03059445211
0.03072707855
0.03084428866
0.0308987256
0.03095362251
0.03100021484
0.03112218228
0.03127914274
0.03147031686
0.03178912504
0.03220758131
0.03278299792
0.03370052966
0.03305338763
0.08021760358
0.01298695708
0.01021483266
0.006580599695
0.004953761655
0.00412474971
0.003820018974
0.003973998727
0.004598634533
0.005473748134
0.006518406493
0.007657174413
0.008856980495
0.01009064115
0.01133575922
0.01257389529
0.01379178265
0.01497712565
0.01612337039
0.01722461206
0.01828124366
0.01928809496
0.02024489051
0.02114243732
0.02198861571
0.02278611257
0.02356088846
0.02432713373
0.02512144504
0.02596123533
0.02681590564
0.02765398121
0.02843211782
0.0291087188
0.02971016726
0.03026741084
0.03084495612
0.0311701785
0.03123959952
0.03149482369
0.03163568779
0.03174004144
0.03181229584
0.03191927259
0.03207169449
0.03234944256
0.03273041574
0.03345244115
0.03429943906
0.03399951493
0.08127308878
0.01298690789
0.01021480947
0.006580567566
0.004953724304
0.004124699493
0.003819953797
0.003973644796
0.004597978329
0.005473318693
0.006517806804
0.007656562933
0.008855668673
0.01008855889
0.01133231987
0.01256882258
0.01378325471
0.01496488265
0.01610562689
0.01720247383
0.01824845344
0.01923778571
0.02015910206
0.02100890438
0.02177365541
0.02247095178
0.02311702991
0.0237807901
0.02452847413
0.0254098188
0.02636522061
0.02732661353
0.02821335333
0.02899636825
0.02952982554
0.02998362943
0.02879243351
0.02813292265
0.02791098071
0.02783892054
0.0280053277
0.02823065183
0.02846171943
0.0287038356
0.0289617647
0.02935918823
0.02984065702
0.0304714571
0.03142539428
0.03076948492
0.0780493812
0.01298686659
0.01021475172
0.006580518631
0.004953678234
0.004124652398
0.003819893612
0.003973167511
0.004597243845
0.005472656441
0.006516908076
0.007655190739
0.008854021542
0.01008657593
0.0113296872
0.01256484828
0.01377701766
0.01495474914
0.01609286735
0.017183912
0.01821923284
0.01918154388
0.0200555056
0.02081975914
0.02145394164
0.02194930715
0.02239634462
0.02288745692
0.02344751623
0.02426115584
0.02520116376
0.02621892032
0.02713561208
0.02798257778
0.02867723185
0.02964000167
0.03076526791
0.03052929662
0.02897172598
0.028432042
0.02863211781
0.02876783015
0.02876982598
0.02874506546
0.02892629053
0.0292677971
0.02970472134
0.03029704102
0.0312155417
0.03060850659
0.07793505375
0.01298683159
0.01021470986
0.006580478426
0.004953637119
0.004124609927
0.003819839697
0.003972923152
0.004596975552
0.005472685135
0.00651685914
0.007654927491
0.008853350434
0.01008528342
0.01132743418
0.01256097446
0.01376973838
0.01494286861
0.01607241313
0.01715383826
0.01817242139
0.01910009802
0.01990549885
0.02053848652
0.02100170297
0.02150594507
0.02205200989
0.02263823482
0.02308796204
0.02409546004
0.0250787496
0.02636155179
0.02756560398
0.0285116281
0.02931046919
0.02964501059
0.03203026503
0.0346815326
0.03461522697
0.03560084702
0.03659020397
0.03702121561
0.03694822453
0.03674086032
0.03654425319
0.03654070191
0.03660758134
0.03698955421
0.03730500114
0.03719279083
0.08405974143
0.0129868064
0.01021467522
0.006580448591
0.004953608805
0.004124583944
0.003819805385
0.003972696626
0.004596777225
0.005472621884
0.006516936293
0.007654773403
0.00885289944
0.01008444476
0.01132593576
0.01255823529
0.01376459055
0.01493313117
0.01605410199
0.01712141376
0.0181179182
0.01900411442
0.01972573102
0.02020690811
0.02072523295
0.0212974413
0.02194882818
0.02274009281
0.02216544396
0.02297538123
0.02217828708
0.02300019677
0.02434174863
0.02564373211
0.02641172995
0.02744428253
0.02878983485
0.02924604039
0.02884960307
0.03015602753
0.03120424217
0.03180510367
0.03187466078
0.03161914663
0.03114091849
0.03130272368
0.0315511274
0.03206242052
0.03282057911
0.03269171392
0.08016065903
0.01298679033
0.01021465631
0.006580430451
0.004953590625
0.004124565661
0.003819782878
0.003972597171
0.004596799406
0.005472757482
0.006517725071
0.007655596341
0.00885350887
0.01008469557
0.01132557057
0.01255682888
0.01376113309
0.014926452
0.01604067743
0.01709423563
0.01807336101
0.01892049953
0.01957279062
0.02001733101
0.02057448372
0.02128352842
0.02217946627
0.02310421424
0.02355777434
0.02408048976
0.02304374608
0.02422466745
0.0268943905
0.02967983588
0.03062770986
0.030984158
0.03027574769
0.02962441086
0.03011425545
0.03168173238
0.03321400974
0.03429883215
0.03487115885
0.0346291147
0.03396187642
0.03400751977
0.03407004155
0.03442627099
0.03504185395
0.03447882946
0.08162138521
0.01298678497
0.01021465084
0.006580425766
0.004953586162
0.004124561763
0.003819778145
0.003972557781
0.004596779814
0.005472694413
0.006517977676
0.007655898817
0.008853725273
0.01008477484
0.01132542302
0.01255641415
0.0137597487
0.01492428035
0.01603320745
0.01708352362
0.01804359407
0.01886673716
0.01944082688
0.01985162434
0.02042737987
0.02122787748
0.02194767662
0.02269198743
0.02372359333
0.02321509163
0.02516261285
0.02985172122
0.03715442937
0.04411362709
0.04437330913
0.04396255635
0.04364535057
0.04181050124
0.04070937146
0.04046563361
0.04157956122
0.04283894899
0.04347068014
0.04339748996
0.04301162077
0.04318854698
0.04340426086
0.04387690768
0.04424011613
0.04389834113
0.0900664485
0.01298678981
0.01021466534
0.006580437064
0.004953595433
0.004124570032
0.003819787571
0.003972597288
0.004596731405
0.005472694916
0.006517426589
0.007655266951
0.008853197489
0.01008439717
0.01132528708
0.01255655726
0.013760883
0.01492615146
0.01604044217
0.01709398038
0.0180731295
0.01892013169
0.01957232214
0.02001938474
0.02057616852
0.02128515426
0.02218131713
0.02310565102
0.02355608329
0.02470878251
0.02629339308
0.03458273075
0.04971071855
0.06502384123
0.06044435328
0.05691510817
0.05789003451
0.05142825098
0.04829052364
0.04629756783
0.04473314149
0.04401028424
0.04366049154
0.04282052964
0.04178021611
0.04148209034
0.04125893331
0.04134411609
0.04159960579
0.04051280678
0.08698008876
0.01298680534
0.01021468705
0.00658045738
0.004953615355
0.004124589777
0.003819812656
0.003972716645
0.004596744016
0.005472576508
0.006516794455
0.007654664954
0.008852831629
0.0100844077
0.01132592578
0.01255824248
0.01376462646
0.01493314775
0.01605427621
0.01712163086
0.01811806826
0.01900428526
0.01972572185
0.02020721763
0.02072502738
0.0212957101
0.02194609312
0.02273901858
0.0221701067
0.02350901589
0.02808174536
0.04313551744
0.07018383243
0.1279029403
0.1115745383
0.09888140132
0.09225419758
0.07897863475
0.06794044273
0.06145479072
0.05752169451
0.05376736705
0.05096694178
0.04868142951
0.04671801498
0.0454432424
0.04448164331
0.04387842306
0.04379867166
0.04201449279
0.08883161326
0.01298683057
0.01021471922
0.006580485302
0.004953644444
0.004124618651
0.003819850658
0.003972941157
0.004596954345
0.005472601771
0.006516786875
0.007654899309
0.008853347911
0.01008529529
0.01132745561
0.0125610026
0.01376977733
0.01494291996
0.01607258956
0.01715388594
0.01817246694
0.019100253
0.01990530442
0.02053803636
0.02100050817
0.02150173242
0.02204557415
0.02263486
0.02337953944
0.02570694338
0.03305381707
0.05070009416
0.08442252194
0.165908081
0.1764739074
0.170937801
0.1724977356
0.1667998734
0.1467354678
0.1370115083
0.1329626989
0.1289636887
0.1257543289
0.1235878862
0.1216806301
0.1201341026
0.1187922885
0.1177654417
0.1172684672
0.1101331419
0.1540615566
0.01298686466
0.01021476296
0.006580526763
0.004953686987
0.004124661649
0.003819906904
0.003973210839
0.004597286276
0.005472663741
0.006516987101
0.007655324625
0.008854187038
0.01008676477
0.01132988833
0.0125650648
0.01377722909
0.01495496787
0.01609310292
0.01718434486
0.01821939536
0.01918219064
0.02005580414
0.02082035692
0.02145536371
0.02195499473
0.02240553395
0.02289672147
0.02362430656
0.02566351223
0.03154270869
0.04634379404
0.07261617345
0.1295321355
0.1139242461
0.1010025577
0.09304587424
0.08081529681
0.06941743199
0.06188680709
0.05765662098
0.05473045303
0.0527577759
0.05127298724
0.05014079732
0.04932249202
0.04884076288
0.04879802225
0.04878870183
0.04743348045
0.09501633892
0.01298690594
0.01021481009
0.006580568268
0.004953726477
0.004124704745
0.00381996309
0.00397366976
0.00459804999
0.005473341778
0.006517861982
0.007656649229
0.008855769005
0.01008866003
0.01133241699
0.01256891568
0.01378333982
0.01496497475
0.01610569344
0.01720272846
0.01824868706
0.01923850652
0.02015967557
0.0210116649
0.02178513168
0.02249250346
0.02312869604
0.02380649235
0.02461414043
0.02615951535
0.02963934077
0.03811045931
0.0527031748
0.06711158062
0.06252549327
0.05809478445
0.05497260769
0.05043171594
0.04687172586
0.04428633775
0.04279762349
0.04169938019
0.04084270592
0.04018782843
0.03970092895
0.03943485292
0.03936280196
0.03956049306
0.04013081233
0.03903527628
0.08592197548
0.01298695383
0.01021482693
0.006580596398
0.00495376071
0.004124754219
0.003820029569
0.003974072653
0.004598789964
0.005473890818
0.006518605256
0.007657410595
0.008857235111
0.01009090852
0.0113360446
0.01257420579
0.0137920916
0.01497748015
0.01612363326
0.01722511989
0.01828194038
0.01928914639
0.02024652458
0.02114979675
0.02200787738
0.02281795556
0.02359610715
0.02436497195
0.02516334782
0.02619817575
0.02795339318
0.0316915144
0.03798258465
0.04371694019
0.04207841816
0.04048625233
0.03924845212
0.03765582184
0.03622902699
0.03550287745
0.0349924918
0.0346346201
0.03436329298
0.03418454059
0.03409141614
0.03422288182
0.03448088439
0.03491793987
0.03571429834
0.03473270422
0.08174232419
0.01298700558
0.01021488477
0.006580646138
0.004953807907
0.004124809121
0.003820100413
0.003974936007
0.004600298742
0.005475587182
0.006520734143
0.00765979895
0.008859679469
0.01009334873
0.01133844037
0.01257715924
0.01379611764
0.01498450489
0.01613432378
0.01724034595
0.01830057298
0.01931583293
0.02028663947
0.02121450408
0.02210278925
0.02295417854
0.02377357355
0.02458085997
0.02539434563
0.02625680196
0.02732563633
0.02895165771
0.03140220588
0.03370023943
0.03371484456
0.03325573897
0.03290776439
0.0325423887
0.03230213699
0.03219858846
0.03215664249
0.0321260443
0.03219005723
0.03230392129
0.0324651675
0.03274711757
0.03313638568
0.03375752877
0.03464104814
0.03410146728
0.08133093647
0.01298706292
0.01021492381
0.006580700277
0.004953875204
0.004124898288
0.003820216946
0.003975488775
0.004601140465
0.005476313904
0.006521726737
0.007661572262
0.008862481967
0.01009775441
0.01134485082
0.01258619653
0.01380845322
0.01500129812
0.01615696636
0.01727024029
0.01833805999
0.01936057653
0.02033909864
0.02127813799
0.02218187563
0.02305363523
0.02389846728
0.0247284698
0.02555857713
0.02639764938
0.02727261299
0.02823664814
0.02937357326
0.0304363587
0.03087929543
0.03080115695
0.03073348578
0.0307167024
0.03075065324
0.03081117975
0.03090686991
0.03089677073
0.03092948023
0.03111344705
0.03133458176
0.03168160224
0.03213349984
0.03284742321
0.03377609348
0.03345791008
0.0807522008
0.01298712095
0.0102150014
0.006580766946
0.004953942951
0.004124983444
0.003820342559
0.003977143729
0.004604144343
0.005495532795
0.006547590514
0.007694583965
0.008902219838
0.01014393681
0.01139726975
0.01264486495
0.01387338542
0.01507289822
0.01623592247
0.017357805
0.01843539251
0.01946780558
0.0204555394
0.02140300392
0.02231399582
0.02319495876
0.02404842107
0.024884443
0.02571938276
0.02656008296
0.02739372182
0.0282228224
0.02905304434
0.02981413252
0.03038373773
0.0307755689
0.03108350658
0.03132840305
0.03150893601
0.03161244685
0.03166582955
0.03158859433
0.03147325671
0.03161075904
0.03188405281
0.03228723641
0.03275630031
0.03356189099
0.03443751725
0.03419532281
0.08147742575
0.012987179
0.0102150938
0.006580919584
0.004954195457
0.004125373385
0.003820885879
0.003978552125
0.004619500295
0.005529986995
0.006596893994
0.007760236459
0.008985041024
0.01024439985
0.01151568307
0.01278141591
0.01402821034
0.01524614572
0.01642791978
0.01756897833
0.01866655109
0.01972002663
0.02072977348
0.02169867118
0.02262944409
0.02352771507
0.02439901988
0.02525062329
0.02608843651
0.0269283656
0.02775334873
0.02855657441
0.02932330364
0.03001296536
0.03058234123
0.03103224836
0.03137398931
0.03163728203
0.03184819559
0.03200224329
0.03211618896
0.03208655732
0.03202539034
0.03217311205
0.03249062593
0.03292682473
0.03344236221
0.03428934861
0.03510680807
0.03494651408
0.08219894786
0.01298723636
0.01021561934
0.006581525505
0.004955163748
0.004126847365
0.003822925174
0.004001904051
0.004666253658
0.005596121274
0.006682913726
0.007866071889
0.009110260864
0.0103884316
0.01167796417
0.01296130827
0.01422515201
0.01545957647
0.01665754869
0.01781458589
0.01892828809
0.01999806436
0.02102475191
0.02201092601
0.02296005735
0.02387687153
0.02476691981
0.02563347051
0.02648061094
0.02730898162
0.02811137381
0.02888933622
0.02963189931
0.03030788264
0.03088415837
0.03134950418
0.03169096603
0.03190615285
0.03209342623
0.03228787144
0.03247924836
0.03253335146
0.03254480457
0.03276298122
0.0331283953
0.03360273665
0.03414599527
0.03501523938
0.03577794205
0.03563211737
0.08287238942
0.01298730142
0.01021817139
0.006584344757
0.004959513449
0.004133280724
0.003848723518
0.00405843567
0.004749895351
0.005712228207
0.006832656424
0.008051194801
0.009331032138
0.01064488194
0.011969805
0.01328784006
0.01458547893
0.0158525852
0.01708213946
0.01826966506
0.01941299038
0.02051160737
0.02156627871
0.02258042951
0.02355671379
0.02449980622
0.02541448607
0.02630391792
0.0271714187
0.0280106684
0.02882210619
0.02959928011
0.03033435417
0.03100417393
0.03157633575
0.03200560096
0.03221929336
0.03216397314
0.03220934095
0.03243560812
0.03275533828
0.03304300127
0.03332475285
0.03373399161
0.0341972903
0.03473635427
0.03531295441
0.03620793108
0.03688662757
0.03673263164
0.08384269161
0.01298740819
0.01023152552
0.006596767105
0.004975871281
0.004189572258
0.00393761355
0.004196910317
0.004936815632
0.005945849316
0.007110681728
0.008370270012
0.009689293453
0.01103821989
0.01239520827
0.01374113312
0.01506246385
0.01634978736
0.01759669151
0.01879917624
0.01995551623
0.02106522245
0.02213045885
0.02315359879
0.02413779072
0.02509095552
0.02600960223
0.02690862167
0.02777680364
0.02862332379
0.02944711182
0.03023300002
0.0309721133
0.03164797752
0.03221024559
0.03253743785
0.03243855796
0.03237563473
0.03239383034
0.03248859279
0.03288788077
0.03343565045
0.03403763205
0.03467118587
0.03531963869
0.03600878512
0.03668489835
0.03761489569
0.03827744387
0.03805922868
0.08496266334
0.01298881493
0.01028658375
0.006646051063
0.00505908064
0.004323169545
0.004104447692
0.004497269959
0.005350218588
0.006465259929
0.007732754661
0.009091657558
0.01050241816
0.01193450384
0.01336198397
0.01476841745
0.01614029747
0.01746805788
0.01874594295
0.01997211377
0.02114570602
0.0222674812
0.02334042317
0.02436687994
0.02535124787
0.02630090657
0.02721677906
0.02810677637
0.02897084795
0.02980879774
0.03062346957
0.0314060947
0.03214882398
0.03283452289
0.03338692451
0.03354701482
0.0333935635
0.03319462334
0.03314103297
0.03321463769
0.03358078633
0.03428271424
0.03508313173
0.03592045338
0.03676058757
0.03762032339
0.03844155873
0.03944349972
0.04015777227
0.0398269107
0.08613707382
0.013006958
0.01050253744
0.007004057159
0.00541895518
0.004708800992
0.004694829254
0.005308866663
0.006300971553
0.007515593913
0.008863691335
0.01028812008
0.0117478743
0.01321210005
0.01465775917
0.01606808805
0.01743247679
0.01874389323
0.01999841992
0.02119324391
0.02232955208
0.02341024811
0.02444081852
0.02542369007
0.02636596069
0.02727152093
0.02814683366
0.02899557478
0.0298220826
0.03062916218
0.03141644317
0.03218328196
0.03291895405
0.033622395
0.03423045319
0.03463098913
0.03449699061
0.03428722227
0.03425564188
0.03436743371
0.03466125577
0.03558514624
0.03669981318
0.03788841615
0.03908561093
0.04030614627
0.04147153392
0.04281790169
0.04368550139
0.04283998725
0.08835743559
0.01309531577
0.009722207555
0.007202556021
0.006111860669
0.005903584272
0.006315793963
0.007184174829
0.008388939915
0.009834563515
0.01144188166
0.01314613887
0.0148960266
0.01665163416
0.01838234279
0.02006632449
0.02168872841
0.02324018577
0.02471577598
0.0261137065
0.02743535609
0.02868288821
0.02986260523
0.03098127955
0.03204767068
0.03306544897
0.03404899742
0.03499194448
0.0359146633
0.03680856968
0.03768155624
0.03854154033
0.03938887634
0.04024191692
0.04100949831
0.04149099253
0.04126478325
0.04101640986
0.04095839354
0.04108572757
0.04165354255
0.04290824626
0.04435950696
0.04587323731
0.04738644889
0.04890231504
0.05037891543
0.05190749313
0.05275844759
0.05413303364
0.09974698902
0.01361569872
0.008933449822
0.007385516652
0.007157552848
0.007792151415
0.00907612842
0.01084325853
0.01295059666
0.01527342244
0.01771210064
0.02019040956
0.02265261192
0.02505854947
0.02737875812
0.02959611847
0.03170334668
0.03369830209
0.03558121575
0.03735815715
0.03903856614
0.04063205799
0.04214967801
0.04360331247
0.04500331247
0.04635970738
0.04768482211
0.04899233839
0.05028364282
0.05158866104
0.05294504261
0.05453877945
0.05667714052
0.05951782953
0.06241405621
0.06334321418
0.06356745212
0.0639700766
0.06456011265
0.06537180312
0.06653474935
0.06818577373
0.0700678803
0.07207488342
0.07416298163
0.07634220831
0.078595205
0.08102196677
0.08322709802
0.08684987554
0.1333504817
0.01307037526
0.00763918173
0.005131280917
0.004187124139
0.00403436276
0.00440192112
0.00514739777
0.006181207973
0.007433394446
0.008845514373
0.01036807306
0.01195875705
0.01358171173
0.01520761326
0.01681278582
0.01837857265
0.01989122263
0.02134077497
0.02272172685
0.0240303364
0.02526696427
0.02643184954
0.02752881008
0.0285609318
0.02953272501
0.03044729538
0.03131965088
0.03213741733
0.0330039496
0.03412982805
0.03609756809
0.03964585135
0.04517591644
0.05125137084
0.05119758668
0.04946368569
0.04783253428
0.04628539761
0.04508135451
0.04412393873
0.04342465539
0.04295405747
0.04266375987
0.04251828888
0.04249242445
0.04257328366
0.0427563948
0.04335880105
0.04428254611
0.0902877377
0.01226608049
0.007195075246
0.004661792975
0.003202016016
0.002346051225
0.001807972885
0.001450772459
0.00120401774
0.001028828963
0.0009023681924
0.000810498523
0.0007440368428
0.0006967319418
0.0006641509862
0.0006430521795
0.0006310129832
0.0006261206073
0.0006269044356
0.0006322236352
0.0006411131758
0.0006531801884
0.0006680173665
0.0006857828985
0.0007067290754
0.0007310038497
0.000759437268
0.0007914516262
0.0008286278259
0.0008706970778
0.000925038888
0.00100531132
0.001139937654
0.001355256538
0.001607644307
0.001601377764
0.001567702531
0.00153479419
0.001506830216
0.001508399375
0.001532872598
0.00158138244
0.001652415214
0.001745033287
0.00185755499
0.001992140046
0.002153385084
0.002329588935
0.005451319457
0.005394766543
0.01219818949
0.01212328327
0.007184776727
0.004667307902
0.003212316879
0.002354590112
0.001811910286
0.001448629966
0.001194487273
0.001010491062
0.0008737424884
0.0007701369861
0.0006906106575
0.0006291250527
0.0005815530413
0.0005449769644
0.0005173087989
0.0004969638501
0.0004829035366
0.0004742787707
0.0004706246508
0.0004715426096
0.0004768011789
0.0004863718859
0.0005002841681
0.0005186754198
0.0005417700229
0.0005699180769
0.0006029822587
0.0006410586676
0.0006834683202
0.0007290554396
0.000775008373
0.000817846269
0.0008521467245
0.0008732586463
0.0008612998329
0.0008208034706
0.0008082195236
0.0008464697016
0.0009129908093
0.0009985831014
0.001101547953
0.001223265056
0.00136365852
0.0015271452
0.001721489079
0.00194654856
0.004962845862
0.004924147725
0.00829898313
0.0121315276
0.007235543006
0.004716255663
0.00322107864
0.00236075481
0.001814526468
0.001449141486
0.00119372573
0.001009006333
0.0008719228512
0.0007682595177
0.0006889049416
0.0006277899389
0.0005807150236
0.0005447316422
0.0005177288034
0.0004981627629
0.0004848708999
0.000477026245
0.000474058613
0.0004756237931
0.000481474421
0.000491554206
0.0005059591843
0.0005249159339
0.000548642821
0.0005775136024
0.0006115252778
0.0006505261387
0.0006938921309
0.0007392379006
0.0007831341213
0.0008205046076
0.0008447198315
0.0008462533183
0.0008063968495
0.0007707153795
0.0007390169366
0.0007295469474
0.0007539813914
0.0007987827306
0.0008599295096
0.0009374079408
0.001032593216
0.001150345988
0.001300955171
0.001996309068
0.007364623298
0.007185852721
0.01022406021
0.01216893122
0.007321271186
0.004718669246
0.003204728932
0.002351239907
0.001807615973
0.001443184981
0.001188238286
0.001003508269
0.0008659826888
0.0007614816836
0.000680935177
0.0006183053495
0.0005694520988
0.0005314525471
0.0005022100173
0.0004802098307
0.0004643345679
0.0004537792354
0.0004479839699
0.0004465798429
0.0004493854766
0.00045634729
0.0004675476888
0.0004832972672
0.0005037213393
0.0005293559953
0.0005598947519
0.0005952468215
0.0006338119495
0.0006742199337
0.0007124073608
0.0007427681007
0.0007592001704
0.000755700038
0.0007242103843
0.0006935965815
0.0006667783849
0.0006501645141
0.0006526704983
0.0006716839637
0.0007071082501
0.0007606879989
0.0008344514559
0.0009369657165
0.001621794962
0.002661740088
0.007711437835
0.007455229007
0.01037735344
0.01216895767
0.007320530402
0.004718865768
0.003203426702
0.00235046774
0.001804192793
0.001440267061
0.001185657483
0.00100112027
0.0008637058074
0.0007592898889
0.0006788142073
0.0006162603106
0.0005674870093
0.0005295702173
0.000500412067
0.0004784867296
0.0004626638585
0.0004521043114
0.0004462184351
0.0004446147915
0.0004470900284
0.0004536169885
0.0004643284019
0.0004795222446
0.0004992824777
0.0005243071078
0.0005542173234
0.0005436103198
0.0005856572429
0.0007325750137
0.0008316849769
0.000853511289
0.0008562715281
0.0008449855109
0.0008088535232
0.0007736972504
0.0007426152009
0.0007161180009
0.0006944865608
0.0006755127735
0.000665745934
0.0006899975575
0.0007910824801
0.001100925277
0.002231827676