/*--------------------------------*- C++ -*----------------------------------*\
| =========                 |                                                 |
| \\      /  F ield         | OpenFOAM: The Open Source CFD Toolbox           |
|  \\    /   O peration     | Version:  2.2.1                                 |
|   \\  /    A nd           | Web:      www.OpenFOAM.org                      |
|    \\/     M anipulation  |                                                 |
\*---------------------------------------------------------------------------*/
FoamFile
{
    version     2.0;
    format      ascii;
    class       volScalarField;
    location    "8";
    object      nut;
}
// * * * * * * * * * * * * * * * * * * * * * * * * * * * * * * * * * * * * * //

dimensions      [0 2 -1 0 0 0 0];

internalField   nonuniform List<scalar> 
86889
(
0.0001421796516
0.0001448196249
0.0001846339075
0.000264486926
0.0004024973622
0.000607642638
0.0008683296118
0.001162209939
0.001469644078
0.001778845002
0.002084204443
0.002383355865
0.002675306786
0.002959535693
0.003235900069
0.003504512642
0.003765679171
0.004019716767
0.004267075382
0.00450826937
0.004743846954
0.004974612659
0.005201264421
0.005424418859
0.005644775047
0.005863246443
0.006080830826
0.006298236341
0.006516343081
0.006735821471
0.00695611255
0.007178978079
0.007408155644
0.007650413485
0.007901011419
0.008163624563
0.008437937407
0.00872908289
0.009035956964
0.009350951655
0.009666175753
0.00998635134
0.01031411687
0.01065223118
0.01100344202
0.01137552873
0.01177451476
0.01225590057
0.01262812304
0.01253644097
0.0001394738023
0.0001692663203
0.0001772319458
0.0002083888513
0.0002740470638
0.0003853850045
0.0005444509512
0.0007412981861
0.0009606841326
0.001189916623
0.001421292568
0.001650916702
0.00187693064
0.002098354983
0.002314657299
0.002525539859
0.002730834119
0.002930405565
0.003124264261
0.003312408635
0.003495069829
0.003672488742
0.003844926234
0.004012686903
0.004176220013
0.004336120004
0.004492676774
0.004646516827
0.004797693111
0.004946689706
0.00509380237
0.005239648494
0.005384546202
0.005528364823
0.005669079393
0.005813152653
0.005974113554
0.006165567833
0.00636968551
0.006579986972
0.006793368578
0.007009991195
0.007230657112
0.007456240822
0.007689043632
0.007933087822
0.008193760654
0.008471750701
0.008535195232
0.009768665679
0.0001388967475
0.0001924378486
0.000170894886
0.0001737605197
0.000197534563
0.0002582125773
0.0003735829767
0.0005317396977
0.0007145762193
0.0009083121185
0.001105064838
0.001300895567
0.001493941704
0.00168329884
0.001868492051
0.002049270589
0.002225508305
0.002397144963
0.002564183428
0.002726659349
0.002884728415
0.003038623991
0.003188606157
0.003334899109
0.003477739342
0.003617471681
0.003754450088
0.003889023372
0.004021483869
0.004152045121
0.00428091413
0.004408231684
0.004533968479
0.004658166702
0.004779679866
0.004902925767
0.00503579887
0.005198744916
0.005371009169
0.005545335238
0.005720736031
0.005897038628
0.006075759861
0.00625826781
0.006446604276
0.006642649505
0.006850544314
0.007081079266
0.006776362497
0.00835231503
0.0001387576839
0.0001858749709
0.0001597087696
0.0001592210788
0.0001774334849
0.0002182356759
0.0003092971572
0.000452583726
0.000629363139
0.000822877824
0.00102304149
0.001224665728
0.001425107848
0.001622907453
0.00181732738
0.00200794261
0.002194442893
0.002376634363
0.002554464082
0.002727952322
0.00289714442
0.003062146907
0.003223107246
0.003380273967
0.003533893064
0.003684230711
0.003831591035
0.003976225952
0.004118464351
0.004258467912
0.004396288548
0.004531753034
0.004664504094
0.004793562703
0.004917132078
0.005038555105
0.005148355111
0.005274320219
0.005408994726
0.005540567802
0.005667725576
0.005795177479
0.005925058504
0.006058857963
0.006197734171
0.006343767435
0.006500450792
0.006694245743
0.00642433211
0.008035917666
0.000138756227
0.0001842279105
0.0001579882874
0.0001558517199
0.0001706222333
0.0002074637655
0.000285165043
0.0004169048389
0.00058522836
0.0007731674656
0.0009697617544
0.001169270556
0.001368566931
0.001566033658
0.001760759737
0.001952195801
0.002140011544
0.002324003932
0.002504042898
0.002680071439
0.002852083003
0.003020166502
0.003184432632
0.003345060645
0.00350232449
0.003656446281
0.003807734389
0.003956292956
0.004102541923
0.004246480175
0.004387943032
0.004526704269
0.004662324572
0.004794011803
0.004920568046
0.00504277475
0.005157913674
0.005275001589
0.005393314311
0.005504730419
0.005613208327
0.005721566576
0.005830938752
0.005942251939
0.006056530626
0.006179474591
0.006318711219
0.00650620012
0.006237069049
0.007855422988
0.000138754698
0.0001838300422
0.0001575197205
0.0001551055598
0.0001677797389
0.0002017302758
0.0002740670605
0.0004002855148
0.0005639852894
0.0007485226941
0.0009426696878
0.001140322807
0.001338228463
0.001534607266
0.001728484445
0.0019192984
0.002106684691
0.002290401642
0.00247029244
0.002646282996
0.002818340699
0.002986505347
0.003150906644
0.003311700595
0.00346916607
0.003623479116
0.003774923251
0.003923764758
0.004070054918
0.004213573799
0.004354827744
0.004494149658
0.004630620497
0.004763109874
0.004890881943
0.005013610845
0.005129092377
0.005240884203
0.005349598618
0.00545637097
0.005548714128
0.005632461898
0.005733898859
0.005833818426
0.005934346445
0.00604528778
0.006178058324
0.006360867169
0.006102357314
0.007728634726
0.0001387541023
0.0001837548894
0.0001574117941
0.0001549074013
0.0001674299089
0.0002001033645
0.0002695404774
0.0003924507911
0.0005523149481
0.0007330667159
0.0009235924019
0.001117761316
0.001312265738
0.001505287957
0.001695844601
0.001883374044
0.002067511508
0.002248018212
0.002424742731
0.002597608487
0.002766589289
0.002931702938
0.00309306149
0.003250845102
0.003405291201
0.00355661179
0.00370515765
0.003851197389
0.003995036186
0.004137036089
0.004277407495
0.004416866275
0.004553903979
0.004686894766
0.004815556713
0.00493839193
0.005052846446
0.005162959195
0.00527080577
0.005377194214
0.005455625757
0.005515806178
0.005606379536
0.005702906824
0.005799113543
0.005907935414
0.006041166188
0.006224042781
0.005974531367
0.007606839725
0.0001387536916
0.0001837402343
0.0001573880664
0.0001548617143
0.000167346787
0.000199967345
0.0002676900739
0.0003879943822
0.0005452622063
0.0007233695906
0.0009112629398
0.001102855715
0.001294851195
0.001485427348
0.001673597319
0.001858791861
0.002040647483
0.002218904345
0.002393399408
0.00256403379
0.002730777695
0.00289363599
0.003052730466
0.003208183854
0.003360250521
0.003509201702
0.003655406149
0.003799426178
0.003942700513
0.004085483217
0.004227135845
0.004367919653
0.004506073791
0.004639913275
0.004769419015
0.004893176682
0.005009550498
0.00512087224
0.005228529855
0.00533440591
0.005412778631
0.005472179387
0.005551177954
0.005646694638
0.00574113603
0.005849484835
0.00598355888
0.006164956479
0.00591482185
0.007540730011
0.0001387532752
0.0001837390791
0.0001573845804
0.0001548538992
0.0001673313574
0.0001999410345
0.0002675625466
0.0003865004996
0.0005414916847
0.0007176088842
0.000903360307
0.001092746289
0.001282501397
0.001470816039
0.001656707547
0.001839615517
0.002019180892
0.002195129759
0.002367295526
0.002535550662
0.002699847001
0.002860187625
0.003016761874
0.003169956033
0.003320064751
0.003467094632
0.003611370725
0.003753889105
0.003896490008
0.00403878967
0.004180147333
0.004320726772
0.004458468832
0.004591895661
0.004721352204
0.004844659726
0.004959911255
0.005070096876
0.00517637926
0.005280408393
0.005354606017
0.005409582729
0.005494663777
0.005593354357
0.005690065508
0.00580080176
0.005931278181
0.006097883486
0.00583387045
0.007436275264
0.0001387528732
0.0001837375263
0.000157382858
0.0001548516233
0.000167327689
0.0001999342377
0.0002674161502
0.0003861900998
0.0005393392201
0.0007145089415
0.0008992652202
0.001087693688
0.001276514242
0.001463919814
0.001648917404
0.001830951692
0.002009650286
0.002184704616
0.002355910338
0.002523138799
0.002686408451
0.002845959334
0.003002027139
0.003154944954
0.003305049477
0.003452096182
0.003596345307
0.003738569867
0.003880162242
0.004021657718
0.004162291684
0.004302039173
0.004439115121
0.004571661782
0.004699379543
0.004820600139
0.004935755905
0.005045009435
0.00514991309
0.005251472851
0.005325505885
0.005398753958
0.005490910174
0.005582488819
0.0056847766
0.005795100591
0.005919816707
0.006078264829
0.005807399793
0.007420305711
0.0001387524652
0.0001837378341
0.0001573828056
0.0001548513964
0.0001673270022
0.0001999330151
0.000267383682
0.00038613556
0.0005393050638
0.0007144652972
0.0008991662348
0.001087537579
0.00127626803
0.001463538888
0.001648357959
0.001830180027
0.002008614726
0.002183327923
0.002354099087
0.00252091183
0.002683999575
0.002843662653
0.002999883214
0.003152507652
0.003302108849
0.003448699245
0.003592573923
0.003734159225
0.003874484409
0.004014347821
0.004153500494
0.004291888259
0.004428170548
0.004560719692
0.004688883466
0.004803947832
0.004900886078
0.004998835955
0.005102803939
0.005201387388
0.005288556449
0.005380150761
0.00547010107
0.005559242242
0.005664001773
0.005774259981
0.005896995269
0.006044013579
0.005769265805
0.00735785268
0.0001387521071
0.0001837372814
0.0001573821905
0.0001548507566
0.0001673259001
0.0001999309807
0.0002673057306
0.0003859787484
0.000539116866
0.0007142301432
0.0008989042492
0.001087270007
0.001276013822
0.001463327043
0.001648169117
0.00182997616
0.00200825644
0.002182774443
0.002353331334
0.00252028395
0.002683624619
0.002843418793
0.002999351163
0.003151262041
0.003299339452
0.003444741979
0.003587463593
0.003727954821
0.003867401906
0.004006124364
0.004144006477
0.004280560688
0.004415469417
0.004551123274
0.004686765992
0.004798045218
0.004862359165
0.004910004363
0.005019429812
0.005131240654
0.005243830217
0.005351232659
0.005455025747
0.005554648987
0.00566071926
0.005774120969
0.005905326268
0.006071882707
0.005809808028
0.007449954267
0.0001387517656
0.0001837378982
0.0001573825374
0.0001548511143
0.0001673260865
0.0001999311267
0.0002672814379
0.000385924844
0.0005390893042
0.0007141959575
0.0008988831575
0.001087211042
0.001275917232
0.001463156988
0.001647910157
0.001829523399
0.002007586606
0.002181810287
0.002352314016
0.002519281099
0.002682382873
0.002841205044
0.002995579767
0.003145318168
0.00328999158
0.003430190097
0.003567940352
0.003704022623
0.003840542589
0.003978232412
0.004117249812
0.004256680865
0.004397373542
0.004541557271
0.004693870855
0.004573800424
0.004535505971
0.00453603508
0.004567896178
0.004662980708
0.004762156115
0.004857412764
0.004950031198
0.005041207213
0.005152311256
0.005268508372
0.005397245701
0.005549382727
0.005337785423
0.007079130812
0.000138751479
0.0001837371623
0.0001573818378
0.0001548503859
0.0001673253035
0.00019992977
0.0002672424303
0.0003858569188
0.0005390274773
0.0007141150153
0.0008987663808
0.001087080559
0.001275775826
0.001462990995
0.001647683544
0.001829184986
0.002007045915
0.002181144064
0.002351802696
0.002518908651
0.002681495891
0.002838890387
0.00299068472
0.003136030888
0.00327438375
0.003407531717
0.003538003035
0.003661188
0.003787707153
0.00391621421
0.004047436659
0.004182064517
0.004325035363
0.004487273731
0.004668770944
0.004694506005
0.004626605335
0.004441373052
0.004423134337
0.004539190955
0.004655034887
0.004738173697
0.004808208374
0.004905892177
0.005023856384
0.005146237796
0.005280215863
0.005436351133
0.005224867801
0.007042442118
0.000138751236
0.0001837368312
0.0001573814764
0.0001548499877
0.0001673250336
0.0001999292273
0.0002672255648
0.0003858384333
0.000539043414
0.0007141327551
0.0008987768502
0.001087071887
0.001275736467
0.001462902288
0.001647507486
0.001828817161
0.002006411406
0.002180044841
0.002350461768
0.00251714467
0.002678881917
0.002834384572
0.002981813564
0.003121127142
0.003257486654
0.003392281381
0.003526307978
0.003633193079
0.003762602611
0.003853789523
0.003994421552
0.004142595426
0.004301530034
0.004488409086
0.004591064617
0.004816613076
0.004938880169
0.004477546199
0.004631278235
0.00486457236
0.005063565558
0.005191818337
0.005304075606
0.005420352841
0.005554923885
0.005694011053
0.005859727634
0.006048912928
0.005906125052
0.007715965868
0.0001387510611
0.0001837364036
0.0001573810733
0.000154849552
0.000167324682
0.0001999285396
0.0002672077882
0.0003858229286
0.0005390437547
0.0007141524832
0.0008987847078
0.0010870655
0.001275712649
0.001462846386
0.00164738623
0.001828563003
0.002005898357
0.00217905335
0.002348776252
0.00251441342
0.002674811239
0.002827929213
0.002970338776
0.003109321245
0.003247909198
0.003389155665
0.00353944551
0.003471157081
0.003617555973
0.003502903448
0.003594337429
0.003731142336
0.003880942361
0.004047176591
0.004233210627
0.004299596613
0.004307751693
0.004219988893
0.004390440136
0.004567969471
0.004734364831
0.004854452735
0.004934332846
0.004975449151
0.005107475076
0.005246990906
0.005403629782
0.005577198813
0.005392143631
0.007249109436
0.0001387509494
0.0001837362581
0.0001573809117
0.0001548493783
0.0001673245665
0.0001999283458
0.0002672010754
0.0003858291064
0.0005390647024
0.0007142432202
0.0008988903044
0.001087166501
0.001275799393
0.001462902379
0.001647385205
0.001828444159
0.002005591857
0.00217836349
0.002347325627
0.002511987384
0.002670765001
0.002821262109
0.002954884589
0.003094579655
0.003242250858
0.003406744733
0.003561571597
0.00364098716
0.003668250943
0.003469459803
0.003564389339
0.003766338314
0.003999063565
0.004181649475
0.00434917608
0.004307654978
0.004344825132
0.004472200286
0.004644313733
0.004828650968
0.005008446755
0.005176876609
0.005258252706
0.005289082985
0.005424121978
0.00556537908
0.00572586713
0.005906133138
0.005701017351
0.007457759917
0.0001387509122
0.0001837362118
0.0001573808643
0.000154849323
0.0001673245429
0.0001999283082
0.0002671979509
0.0003858278855
0.0005390593791
0.000714269636
0.0008989248571
0.001087198219
0.001275824742
0.001462915449
0.001647383714
0.001828386374
0.002005484231
0.002177972551
0.002346710802
0.002510452765
0.002667982893
0.002815432635
0.0029415306
0.003081079617
0.003234855342
0.003364818446
0.003497022422
0.003666644732
0.003607330261
0.003290148255
0.003669145264
0.004257595898
0.004849764319
0.005076373153
0.00525169291
0.005417440516
0.005476031505
0.005606489818
0.005761951221
0.00595557302
0.00615754017
0.006341541581
0.006443033814
0.006505344926
0.006649899135
0.006797845305
0.006963086471
0.007151522931
0.006949894043
0.008496146327
0.0001387509456
0.0001837365224
0.0001573811391
0.0001548495757
0.0001673247711
0.0001999286074
0.0002672009307
0.0003858219102
0.0005390572435
0.0007142117262
0.0008988534617
0.00108712862
0.001275760333
0.001462862465
0.001647344387
0.001828403086
0.002005546572
0.002178319344
0.002347279052
0.002511939897
0.002670710382
0.002821199478
0.002955190144
0.003094872728
0.003242504134
0.003406985932
0.003561734871
0.003640411635
0.003679280792
0.003579457107
0.004085985078
0.00509744458
0.006085215916
0.006138960256
0.006209429977
0.006366750961
0.006042660945
0.006040577437
0.006152384578
0.006281214563
0.006422672749
0.006578341806
0.006644633947
0.006671069172
0.006797336223
0.006927541042
0.007070491358
0.007234884205
0.006902716901
0.008249070919
0.0001387510536
0.0001837367776
0.0001573814028
0.0001548498564
0.0001673249966
0.000199929
0.0002672094693
0.000385819281
0.0005390382499
0.0007141366383
0.0008987702354
0.00108705294
0.001275701172
0.001462835592
0.001647375255
0.00182855216
0.002005884737
0.002179044661
0.002348768444
0.002514402365
0.002674797096
0.002827898169
0.002970314809
0.003109280083
0.003247700046
0.003388774246
0.003539059792
0.003470911406
0.003619403947
0.003676190663
0.004610468263
0.006229469281
0.008258038705
0.008101995242
0.007984561709
0.007815819753
0.00733759551
0.006911032481
0.006848860108
0.006985049409
0.007054327404
0.007167996968
0.007276027653
0.007357099537
0.00748596418
0.007600550944
0.007720045818
0.007852411532
0.007445653956
0.008596584633
0.0001387512288
0.0001837371189
0.0001573817042
0.000154850246
0.0001673253491
0.0001999297328
0.0002672267384
0.0003858355199
0.0005390333424
0.0007141223892
0.0008987690636
0.001087064921
0.001275729177
0.001462893938
0.001647497418
0.001828804881
0.002006396911
0.002180032497
0.002350437054
0.002517112831
0.00267885364
0.002834340691
0.002981748089
0.003120994303
0.003257078816
0.00339148886
0.00352560482
0.003633916926
0.003786159023
0.00415446529
0.005246542302
0.00706185518
0.008281763611
0.09493701793
0.08977883955
0.06659087164
0.06388452004
0.05268732919
0.04832179218
0.04696621856
0.04548527751
0.04391916241
0.04266731756
0.04148180448
0.04039681105
0.03935417897
0.03837523261
0.03746645091
0.03290857585
0.02063898089
0.0001387514653
0.000183737533
0.0001573821417
0.0001548507539
0.000167325762
0.0001999305664
0.00026724605
0.0003858606472
0.000539027362
0.0007141210537
0.0008987766005
0.001087092493
0.001275788279
0.001463002517
0.001647693567
0.001829191464
0.002007048101
0.002181141202
0.002351801612
0.002518889192
0.002681488772
0.002838867648
0.002990650455
0.003136009314
0.003274579034
0.003408065785
0.003538513147
0.00366226182
0.003807266983
0.004113400005
0.005008002191
0.00653830093
0.008434285367
0.008368877868
0.008287434064
0.008413725752
0.008020705281
0.00751019136
0.007260901136
0.007293477095
0.007392379467
0.007528093949
0.007665317421
0.00779869013
0.00792801817
0.008073132769
0.008236677106
0.008429253122
0.008026453686
0.009187535145
0.0001387517516
0.0001837379428
0.0001573825755
0.0001548511968
0.0001673263164
0.0001999316136
0.0002672833008
0.0003859313705
0.0005390907212
0.0007141995108
0.0008988882357
0.001087215667
0.001275919794
0.001463156421
0.001647905601
0.001829513543
0.002007570761
0.002181785036
0.002352287682
0.002519245895
0.002682360221
0.002841172488
0.00299561216
0.003145768818
0.003291771158
0.003431431668
0.00356940337
0.003706365765
0.003855834801
0.004075139882
0.004578490876
0.005509609572
0.006400729294
0.006449057502
0.006450686098
0.006538826312
0.006395813384
0.006309852068
0.00629687354
0.006389926595
0.006497338822
0.006602469878
0.006704600163
0.006803604354
0.006912634902
0.00702378637
0.007145498886
0.007288706075
0.006908762328
0.008133216287
0.0001387520842
0.0001837371579
0.0001573821154
0.000154850766
0.0001673261627
0.0001999316383
0.0002673121709
0.0003859940012
0.0005391314101
0.0007142498059
0.0008989264605
0.001087292305
0.001276034761
0.001463346023
0.001648185528
0.001829987094
0.002008263114
0.002182769103
0.002353326535
0.002520278957
0.00268362702
0.002843440879
0.002999600787
0.003152322657
0.003302202153
0.003448557029
0.003591369023
0.003731976167
0.003875435658
0.004037365311
0.004279363958
0.004685147638
0.005118255797
0.005233344215
0.005320058732
0.0054212567
0.005442007617
0.005453780707
0.005541861828
0.005636603056
0.005731265035
0.005818465648
0.005902302286
0.005984465233
0.006091795735
0.006202732483
0.006323981853
0.006466304731
0.006145529741
0.007585829357
0.0001387524431
0.0001837376651
0.000157382676
0.0001548513509
0.0001673271419
0.0001999334505
0.0002673864311
0.0003861420357
0.0005393078887
0.0007144712431
0.0008991721526
0.001087541512
0.001276267178
0.001463534585
0.001648348599
0.001830160648
0.002008580834
0.002183278968
0.002354032938
0.002520840718
0.002683922812
0.002843608914
0.002999947256
0.003152997777
0.003303250234
0.003450159841
0.003593964614
0.003735462493
0.003876305736
0.004021244941
0.004182083632
0.004378339557
0.004589320487
0.004733486589
0.004855372951
0.004973938336
0.005071655067
0.005171760591
0.005277543707
0.005378260777
0.00546744533
0.005561457849
0.005654215054
0.005746841098
0.005852344275
0.00596312469
0.006088842907
0.006239685805
0.005943378902
0.007486390472
0.0001387528434
0.0001837372084
0.0001573825951
0.0001548514457
0.0001673277104
0.0001999345958
0.0002674247006
0.0003862083129
0.0005393570175
0.0007145344477
0.0008992940161
0.001087724171
0.001276545616
0.001463953107
0.001648950889
0.001830983203
0.002009679229
0.002184730337
0.00235593411
0.002523163699
0.002686431509
0.002845972284
0.003002018627
0.003154923504
0.003304986798
0.003451973292
0.003596128124
0.003738287191
0.003879872972
0.004022206382
0.004166465922
0.004316018365
0.004466373198
0.004603743336
0.004729553397
0.004845193763
0.00495473829
0.005057977447
0.005157152453
0.005252546337
0.00532136773
0.005390461799
0.005479606184
0.005569310891
0.005671754388
0.005782418047
0.005908864169
0.006064898671
0.00579088051
0.007399599228
0.0001387532451
0.0001837383023
0.0001573839554
0.0001548534598
0.0001673312054
0.0001999414866
0.0002675734737
0.0003865132769
0.0005415007975
0.0007176225912
0.0009033718822
0.001092750428
0.00128249561
0.001470799062
0.001656677963
0.001839571909
0.002019122574
0.002195055163
0.0023672047
0.002535443311
0.002699721875
0.002860040464
0.003016591271
0.003169759943
0.003319833261
0.003466804641
0.003611010925
0.003753450554
0.003895961307
0.004038226199
0.004179901068
0.004321780409
0.004461760029
0.004596424888
0.004725378185
0.004848629919
0.004964675414
0.00507533652
0.005181580919
0.005285626536
0.005361433692
0.005417819088
0.005503461312
0.005599999186
0.005693973073
0.005802553927
0.005933994565
0.006108783763
0.005852615331
0.00747380781
0.0001387536552
0.0001837391157
0.000157387149
0.0001548609218
0.0001673461483
0.0001999667568
0.0002676727746
0.0003879691896
0.0005452397789
0.0007233549671
0.0009112518997
0.001102847892
0.001294847856
0.001485428939
0.001673603895
0.001858803867
0.002040666229
0.002218927784
0.00239342546
0.002564056598
0.002730789898
0.002893626057
0.003052676608
0.003208078781
0.003360071331
0.003508925945
0.003655022509
0.003798912951
0.003942060805
0.004084723459
0.004226300444
0.004367127064
0.004505348837
0.004639077738
0.00476850545
0.004891703854
0.005007180459
0.005117885626
0.005225623739
0.005331790405
0.005410073867
0.005469127365
0.00554805188
0.005643278137
0.005737841813
0.005846353214
0.005980016237
0.006162038144
0.00591393101
0.007549254645
0.0001387540647
0.0001837539259
0.0001574109858
0.0001549066968
0.0001674293821
0.0002001027114
0.0002695545463
0.0003924920923
0.0005523768453
0.0007331783743
0.0009237129933
0.001117870211
0.001312359988
0.001505367007
0.001695906527
0.001883416686
0.002067534348
0.002248015009
0.002424706421
0.00259752729
0.002766453609
0.002931516249
0.003092823525
0.003250543072
0.003404903578
0.00355617672
0.003704635301
0.003850579863
0.003994339254
0.004136214067
0.004276488229
0.004415859457
0.004552819706
0.004685774057
0.004814431912
0.004937750342
0.005052824067
0.005163540365
0.005271937851
0.005378917586
0.005457879555
0.005518524148
0.005600717486
0.005697371231
0.005794164668
0.005903385674
0.0060363807
0.006219596247
0.005972467829
0.007618819457
0.0001387546548
0.0001838280696
0.000157517962
0.0001551036632
0.0001677768034
0.0002017265065
0.0002740441194
0.0004002413193
0.0005639125714
0.0007483891872
0.0009425276483
0.001140165586
0.001338072215
0.001534460062
0.001728347931
0.001919174182
0.002106566799
0.002290281863
0.002470166158
0.002646144168
0.002818194753
0.002986346673
0.003150745727
0.003311541881
0.003468963307
0.003623260586
0.003774696273
0.003923531784
0.004069757702
0.004213267513
0.004354488097
0.004493796959
0.004630252351
0.004762726428
0.004890495473
0.005013219366
0.00512881604
0.005240772428
0.005349660755
0.005456651828
0.005549283455
0.00563340981
0.005730304502
0.005829981369
0.005930564882
0.006041773052
0.006174830085
0.006358073271
0.006101516877
0.007734650789
0.0001387561936
0.0001842291793
0.0001579894931
0.0001558526574
0.0001706233866
0.000207467066
0.0002852411113
0.0004170519067
0.000585422549
0.0007733973492
0.0009700127691
0.001169562763
0.001368884175
0.001566407467
0.001761156981
0.001952600971
0.002140420406
0.002324409595
0.002504443141
0.002680470933
0.002852481884
0.003020561132
0.003184830783
0.003345461781
0.003502787318
0.003656844294
0.00380815777
0.003956698838
0.004102820338
0.004246689638
0.004388119685
0.004526875627
0.004662532133
0.004794295147
0.004920900287
0.005043115987
0.00515854503
0.005276005778
0.005394368592
0.005505686262
0.005614159437
0.005722566895
0.005832066842
0.005943616236
0.006058293144
0.006181737499
0.006321393256
0.006509131726
0.006242696791
0.00786706324
0.0001387698876
0.0001858853382
0.0001597325927
0.0001592433388
0.000177452327
0.0002182499091
0.0003092501457
0.0004524859765
0.0006292377486
0.0008227407624
0.001022899732
0.001224526627
0.00142497762
0.00162274863
0.001817175386
0.002007790553
0.002194281651
0.002376469687
0.002554313826
0.002727810168
0.002896999561
0.003061994614
0.003222944502
0.003380083554
0.003533728158
0.003684052239
0.003831418333
0.003976066525
0.004118223327
0.004258133643
0.004395781871
0.004531067059
0.004663693722
0.004792686063
0.004916244829
0.005037846229
0.005147855496
0.005274045739
0.005408777207
0.005540357433
0.005667545179
0.00579505859
0.005925060981
0.006059063769
0.006198204366
0.006344676162
0.006502040224
0.006696153281
0.006428724433
0.008042422106
0.0001389085653
0.0001924589282
0.0001709281957
0.0001737955175
0.0001975754678
0.0002584196638
0.0003739219014
0.0005321761758
0.0007151134182
0.0009089388057
0.001105768254
0.001301669915
0.001494781385
0.001684197582
0.001869435243
0.002050272367
0.002226574074
0.002398274951
0.002565349131
0.002727864488
0.002885954028
0.003039868998
0.003189837878
0.003336130317
0.003478970911
0.00361870662
0.003755690624
0.003890274397
0.004022750848
0.00415334427
0.004282227722
0.004409550933
0.004535286021
0.004659470744
0.004780987215
0.004904264157
0.005037098292
0.005200098079
0.005372427896
0.005546897095
0.005722519881
0.005899162197
0.006078294647
0.006261310806
0.006450211219
0.006646796726
0.006855514789
0.007086943042
0.006787341513
0.008366582363
0.0001394739055
0.000169266525
0.0001772197119
0.000208174056
0.0002736505459
0.0003849127217
0.0005438988399
0.0007406546788
0.0009599639309
0.00118913503
0.001420455122
0.001650022902
0.001875982901
0.002097352143
0.00231359312
0.002524422759
0.002729653118
0.002929182363
0.003122971914
0.003311077416
0.003493631731
0.003670949791
0.003843312754
0.00401101893
0.00417446198
0.004334310782
0.004490850141
0.004644651562
0.004795892902
0.004944891072
0.005091979278
0.005237753716
0.005382660891
0.005526539019
0.005667274756
0.005811373023
0.005972318542
0.006163823546
0.006368011426
0.006578373968
0.006791899501
0.007008777881
0.007229824673
0.007455890888
0.00768913679
0.0079336154
0.008194534227
0.008472788725
0.008536733709
0.009774249154
0.0001421796076
0.0001448178885
0.0001846339776
0.0002645255244
0.000402661705
0.0006079495212
0.000868700846
0.001162589182
0.001470008963
0.001779177347
0.002084490573
0.002383586699
0.002675469104
0.00295962759
0.003235916716
0.003504452768
0.003765537069
0.004019472465
0.00426671435
0.004507806234
0.004743309376
0.004974006451
0.005200563083
0.005423600479
0.005643842311
0.005862174708
0.006079542812
0.006296821408
0.006514661777
0.006733821256
0.006953923335
0.007176606897
0.007405404077
0.007647425634
0.007897823487
0.008160326228
0.00843450685
0.008725530872
0.00903229896
0.009347001426
0.009661998054
0.009982015782
0.0103096993
0.01064780128
0.01099897049
0.0113708599
0.01176955021
0.01225037069
0.01262257501
0.0125395718
0.0001393167615
0.0001144854056
0.000109591868
0.0001262309783
0.0001719796417
0.0002584286924
0.0003924840782
0.0005702004429
0.0007789595051
0.001005323016
0.001239657912
0.001476272253
0.001712033481
0.001945250605
0.0021748456
0.0024000556
0.002620334784
0.002835271616
0.00304464287
0.003248269721
0.003446085247
0.003638086422
0.003824506117
0.004005567715
0.004181471099
0.00435240644
0.004518917088
0.004681206831
0.004841164577
0.005003311316
0.005181739486
0.005414658675
0.005753300351
0.006158523428
0.006341604894
0.006450669455
0.00654491156
0.006618311196
0.006711396694
0.006812985963
0.006926114149
0.007046982268
0.007169818807
0.007292001943
0.007413052724
0.007535277345
0.007661278169
0.007830888849
0.007858010968
0.008770850755
0.0001349700653
0.0001099818164
9.440274144e-05
8.360813512e-05
7.647718091e-05
7.165604679e-05
6.843427307e-05
6.644903523e-05
6.551595244e-05
6.553900673e-05
6.646301926e-05
6.824325372e-05
7.082528424e-05
7.413647376e-05
7.80878263e-05
8.258180723e-05
8.751211102e-05
9.278198502e-05
9.830931578e-05
0.0001040205053
0.0001099053217
0.0001159532109
0.0001222179714
0.0001287614336
0.0001356461504
0.0001430053559
0.0001508374353
0.0001593508462
0.000168631417
0.0001796940804
0.0001945247985
0.0002164299738
0.0002475061254
0.0002826815901
0.0002926374834
0.0002986874589
0.0003042872239
0.0003100395278
0.0003195803742
0.0003321335505
0.0003476514258
0.0003660212168
0.0003874718748
0.000412449157
0.000442325876
0.0004793662851
0.000524162031
0.00111214697
0.001148333857
0.001601964391
0.0001340100902
0.0001114253172
9.570286029e-05
8.475938455e-05
7.738936152e-05
7.223339203e-05
6.85444237e-05
6.590223659e-05
6.405966743e-05
6.286830049e-05
6.223765361e-05
6.210939592e-05
6.244256242e-05
6.320734694e-05
6.437609331e-05
6.592385997e-05
6.781876204e-05
7.004866295e-05
7.259371338e-05
7.546115636e-05
7.865387269e-05
8.219038362e-05
8.611332712e-05
9.047442469e-05
9.533998027e-05
0.0001007912627
0.0001069303771
0.0001138072553
0.0001214919665
0.0001299590573
0.0001391084259
0.0001486260518
0.0001580679267
0.000166741036
0.0001740268169
0.0001773941365
0.00017688731
0.0001795478549
0.0001890329037
0.0002031834097
0.0002206210616
0.0002411896229
0.0002653957204
0.000293808581
0.0003280163917
0.0003705961754
0.0004233824525
0.0009352765096
0.0009752109159
0.001173859201
0.0001340644083
0.0001117537853
9.61769336e-05
8.475820961e-05
7.738399016e-05
7.214078184e-05
6.8383167e-05
6.568674462e-05
6.380843445e-05
6.260396835e-05
6.198586389e-05
6.190173963e-05
6.23164586e-05
6.319935441e-05
6.45248018e-05
6.626951993e-05
6.841030881e-05
7.092196213e-05
7.378743645e-05
7.70000996e-05
8.056866097e-05
8.45070519e-05
8.885216565e-05
9.366134081e-05
9.901164607e-05
0.0001049841687