/*--------------------------------*- C++ -*----------------------------------*\
| =========                 |                                                 |
| \\      /  F ield         | OpenFOAM: The Open Source CFD Toolbox           |
|  \\    /   O peration     | Version:  2.2.1                                 |
|   \\  /    A nd           | Web:      www.OpenFOAM.org                      |
|    \\/     M anipulation  |                                                 |
\*---------------------------------------------------------------------------*/
FoamFile
{
    version     2.0;
    format      ascii;
    class       volScalarField;
    location    "8";
    object      p;
}
// * * * * * * * * * * * * * * * * * * * * * * * * * * * * * * * * * * * * * //

dimensions      [0 2 -2 0 0 0 0];

internalField   nonuniform List<scalar> 
86889
(
590.2555054
589.9120296
589.7771967
589.6108555
589.3565062
589.0755829
588.7860412
588.4684439
588.1107207
587.7097641
587.2616625
586.7607423
586.1997438
585.571173
584.8649066
584.0704573
583.1763638
582.1687608
581.0322731
579.7490202
578.2975181
576.6541394
574.789618
572.6723957
570.2613714
567.5141613
564.3720181
560.7720146
556.6348707
551.8664181
546.3397733
539.9207395
532.4538286
523.7682966
513.6937941
501.9691236
488.4248007
472.6768941
454.4308436
433.3927832
409.2209761
381.5685348
350.1519686
314.8022994
275.4632176
232.2632443
185.513594
136.0589762
85.28156034
39.04944723
590.1041067
589.8461514
589.6676625
589.4714616
589.247554
588.9974934
588.7236895
588.4200555
588.078227
587.6928662
587.2594587
586.7726891
586.2258071
585.6113349
584.9195748
584.1401329
583.2617117
582.2702115
581.1507151
579.8864471
578.4543375
576.8338821
574.993918
572.9039924
570.5269435
567.8158637
564.7164885
561.1659064
557.0856772
552.381781
546.937377
540.6122078
533.2630103
524.6974418
514.7462497
503.1530122
489.8601293
474.2180397
456.106159
435.2311996
411.2053276
383.6636097
352.3111717
316.9581228
277.5245783
234.0935741
186.9293424
136.7204822
85.19016661
37.98672214
590.1041434
589.9328711
589.7858636
589.6091338
589.3978585
589.1577434
588.8940025
588.5947536
588.2523862
587.865848
587.4332763
586.9495567
586.4082035
585.8021547
585.1216283
584.3576461
583.4976402
582.5291637
581.437155
580.2022988
578.8071201
577.2258304
575.4345675
573.3989035
571.0861388
568.4488129
565.4385287
561.9907159
558.0342058
553.4732305
548.1979699
542.0650214
534.9360562
526.6170616
516.9272766
505.6256335
492.6439722
477.3675005
459.6133154
439.0838377
415.3450547
388.0320895
356.8106232
321.4821248
281.9000086
238.1264091
190.413257
140.1078234
86.8987093
39.3993672
590.111681
589.935006
589.7732249
589.5773261
589.3806586
589.160185
588.9000962
588.6163508
588.2952244
587.9294431
587.5194764
587.0622672
586.5504589
585.9758856
585.3303431
584.6025323
583.7827128
582.8567299
581.8109583
580.6286338
579.2912432
577.7758458
576.0577974
574.1069886
571.8899419
569.3657184
566.485774
563.1918816
559.412153
555.0610484
550.0250538
544.1786588
537.3721104
529.4174086
520.1076448
509.2212671
496.5717619
481.7860157
464.5583315
444.5112504
421.2034834
394.2353662
363.2445948
327.9558853
288.1956978
244.0485948
195.9816288
144.9591766
89.64161854
40.63272444
590.1929204
590.0312621
589.893046
589.7160306
589.5376373
589.3528425
589.1196811
588.8480839
588.5409818
588.1894375
587.792239
587.3502118
586.8565083
586.3049309
585.6873534
584.9947158
584.2158433
583.3376676
582.3465237
581.2267535
579.9601918
578.52607
576.900848
575.056885
572.9631521
570.5829251
567.870743
564.7741028
561.2239711
557.139059
552.4124336
546.9205435
540.5119513
533.004229
524.1920421
513.870286
501.7805326
487.6510603
471.1031063
451.6924199
428.9597539
402.4608044
371.7798726
336.5683019
296.5920174
252.0412899
203.1088397
150.3551743
93.05206162
42.20009622
590.2845196
590.1196268
589.9794526
589.7986385
589.6168497
589.4368221
589.2263611
588.9677187
588.6784839
588.3540838
587.9868324
587.5806079
587.1284114
586.6212748
586.0518154
585.4118854
584.6916006
583.8789839
582.9607653
581.9222723
580.7461945
579.4132631
577.9019177
576.1873894
574.2415474
572.0322128
569.5190775
566.6566031
563.3773172
559.6106207
555.2565454
550.1845777
544.235869
537.2455017
529.0253894
519.368564
508.0011755
494.6487777
478.8989474
460.2703218
438.2575767
412.351858
382.0798961
346.9842488
306.7522825
261.5335329
211.22249
156.7697551
97.15719118
44.02369296
590.4233715
590.2666067
590.1394016
589.9750534
589.8105874
589.6486668
589.4638929
589.2402461
588.9731348
588.6627575
588.3225427
587.9449624
587.5259752
587.0584543
586.5355438
585.9496323
585.2914955
584.5501159
583.7129069
582.7657708
581.69208
580.4735911
579.0902467
577.5201295
575.7383916
573.7185629
571.4261197
568.8224054
565.8510194
562.4425938
558.4992256
553.8971523
548.4753622
542.0839734
534.5384502
525.6296268
515.1063348
502.6314455
487.7811458
470.038407
448.8351626
423.6100069
393.8144095
358.8716667
318.3248397
272.1388757
220.3803294
164.1618839
101.8889426
46.15208441
590.574482
590.4172839
590.2921798
590.1300806
589.9709118
589.815815
589.6451172
589.4420721
589.2002261
588.9248959
588.6194408
588.2827516
587.9101342
587.4951888
587.0315756
586.5123959
585.9292715
585.2720503
584.5288329
583.6860524
582.7282171
581.6380048
580.3963798
578.9840849
577.3788868
575.5610654
573.5031297
571.1765723
568.5349985
565.510622
562.0127638
557.9224025
553.0757713
547.3201108
540.4709915
532.3303502
522.6851838
511.1893019
497.359905
480.6035765
460.3011282
435.8294357
406.5526088
371.7778277
330.9034502
283.7155122
230.3399336
172.2330511
107.0198614
48.43654152
590.7583249
590.6068612
590.4916423
590.3423187
590.2007885
590.0605455
589.9053001
589.7334116
589.5239731
589.2810283
589.0073601
588.7078785
588.3800025
588.0175361
587.6144422
587.1646176
586.6606446
586.0932048
585.4510877
584.7209748
583.8876711
582.9335943
581.8412613
580.5926405
579.1667705
577.5519622
575.7296319
573.6864086
571.3843645
568.7551935
565.7220124
562.1687741
557.9389268
552.88884
546.8399458
539.5497431
530.8403702
520.3301643
507.5142371
491.7530626
472.3694751
448.6640212
419.9186076
385.3003667
344.1094758
295.9629579
240.9196849
180.8181934
112.5259731
50.93346934
590.9539607
590.8036626
590.6909615
590.5479045
590.4106452
590.288034
590.153925
590.0023136
589.8200167
589.6145596
589.3793622
589.1232584
588.8465267
588.5434568
588.2082941
587.8357682
587.4194414
586.9508135
586.419271
585.8113683
585.1122723
584.3038414
583.3664564
582.2849149
581.0395452
579.6181679
578.0224514
576.2513749
574.2872143
572.0740172
569.5327507
566.5295319
562.8948849
558.4833736
553.1368672
546.6284054
538.8496387
529.4552687
517.789961
503.0925275
484.6548151
461.7165894
433.4589773
398.9579052
357.4057022
308.2872586
251.543191
189.3196642
117.9388729
53.36673686
591.1721816
591.0263596
590.9243491
590.7906025
590.6689355
590.5620349
590.4486733
590.321198
590.1676326
589.9966067
589.8004905
589.5888829
589.363772
589.1207695
588.8550529
588.5623669
588.237311
587.8722483
587.4573505
586.9796164
586.423202
585.7680133
584.988679
584.0696798
582.9960332
581.7571781
580.3583367
578.8192757
577.1511241
575.3358398
573.2895945
570.881997
567.9492465
564.3179901
559.7774166
554.0858752
547.1327062
538.6300146
528.0034117
514.3368497
496.8199308
474.612645
446.7982143
412.3794938
370.4354
320.3811326
262.0441182
197.7437879
123.3515005
55.85153512
591.3958557
591.2526142
591.1555879
591.0312806
590.9223509
590.8307171
590.7368097
590.6329771
590.5074554
590.3705298
590.2143985
590.0491334
589.8778704
589.6974441
589.5041487
589.2949114
589.0655264
588.8093255
588.5182762
588.1797655
587.7727337
587.2749492
586.6583032
585.8987932
584.9832313
583.9069277
582.6891455
581.3742003
580.0077206
578.5837541
577.0013557
575.0786467
572.6330507
569.4745645
565.4699319
560.4833828
554.70641
547.5923107
538.0985961
525.4380586
508.7789422
487.2099799
459.7387343
425.2784823
382.8402797
331.7501515
271.7976647
205.4080323
128.2164105
58.05567733
591.6351591
591.4951038
591.4043402
591.2896741
591.1939262
591.1187637
591.0449675
590.9656022
590.8683433
590.7653313
590.6488322
590.5293521
590.4113584
590.2929669
590.1718354
590.0462871
589.9135497
589.7691438
589.608116
589.412404
589.1598339
588.8260887
588.3803508
587.779313
586.9906122
586.0099617
584.8684791
583.6620683
582.5159961
581.5009924
580.4898025
579.2787714
577.660407
575.3482974
572.0428771
567.4338294
561.993176
555.5602732
547.2616662
535.7710799
520.0432427
499.112875
471.9398206
437.4434701
394.5401108
342.5064379
281.0561967
212.6924349
132.8922975
60.21027682
591.8773492
591.7399983
591.6546688
591.5488492
591.4648797
591.4049866
591.3499241
591.2933939
591.2235109
591.1530489
591.0744861
590.9993733
590.9332361
590.8754216
590.8249417
590.7818836
590.7445897
590.7135809
590.6837128
590.6332774
590.5404345
590.3806399
590.1136694
589.6865761
589.0509037
588.1940328
587.1685138
586.0667515
585.1047927
584.3685361
583.6640558
582.8058739
581.5024054
579.5521759
576.6276226
572.4627149
569.086759
564.2304863
556.6707231
545.9133659
530.9482253
510.517839
483.5222508
448.8545615
405.3460541
352.2519479
289.3367606
219.094084
136.9808103
62.07984683
592.1250631
591.9905751
591.910784
591.8138207
591.7409154
591.6962209
591.6593728
591.6245763
591.5809998
591.5416531
591.4990555
591.4658305
591.4486487
591.4480588
591.4645075
591.4999998
591.5546227
591.6331599
591.7301865
591.8241024
591.8963016
591.9084892
591.8061763
591.5131111
590.949181
590.0528844
588.8444347
587.5828187
586.9262888
586.8207477
586.9134735
586.8266803
586.3653903
585.4027296
582.7576724
576.8169294
573.8229266
570.668714
564.4856523
554.8973297
540.7782702
520.8494839
494.1536691
459.4615431
415.5540253
361.578005
297.2945331
225.3211337
141.0045145
64.00610958
592.3724317
592.2403254
592.1653679
592.0761868
592.0142917
591.9827068
591.9624248
591.9475204
591.9280356
591.917
591.9073523
591.9122258
591.9393894
591.9905741
592.067547
592.1740511
592.3123063
592.4903241
592.7044344
592.9394784
593.1834877
593.390185
593.5101276
593.4662412
593.1415889
592.4120243
591.2055627
589.7018926
588.8679804
588.7594557
588.9952139
589.1291624
588.8833563
587.9999547
586.1109793
582.9226845
580.9133922
577.9996797
572.5343423
563.64451
550.0698229
530.6106996
504.0794753
469.2370549
424.8979208
370.0363093
304.4919479
230.842672
144.5011474
65.59708539
592.6186071
592.488834
592.4185308
592.3365392
592.2843582
592.2650319
592.2599668
592.2630546
592.2651574
592.2791825
592.299195
592.3378304
592.4037654
592.4999256
592.6291473
592.7966459
593.0057591
593.2684879
593.5768035
593.923571
594.288511
594.6308934
594.8744629
594.9499719
594.7323902
593.948423
592.3018211
590.3202513
590.4454811
591.8212201
592.2943331
592.3660278
592.2490978
591.7288277
590.5094363
588.0937329
585.6892365
583.0030112
578.7224458
570.9151319
558.0916455
539.1873832
513.005822
478.2723753
433.7368039
378.287941
311.681888
236.5427905
148.1296975
67.24980902
592.860272
592.7324409
592.6662664
592.5906179
592.54687
592.5381829
592.5460879
592.5648396
592.5855281
592.6209679
592.6659342
592.7329078
592.8309905
592.9637679
593.134703
593.3500238
593.6138253
593.9422872
594.3277848
594.7750446
595.2703887
595.7885381
596.267501
596.6339666
596.797567
596.1802073
594.5616566
591.2946953
591.8707935
592.5077898
593.7908339
594.6303383
594.7985488
594.5062824
593.6628161
591.9675012
590.3696665
588.3645602
584.7513948
577.6244688
565.3365831
546.8803204
520.84639
486.2173998
441.550364
385.6144326
318.1118546
241.5645828
151.4264384
68.82146801
593.0956692
592.969548
592.9070914
592.8369128
592.8005189
592.80115
592.8204165
592.8525985
592.8886959
592.9420007
593.0066605
593.0961018
593.2194018
593.3799887
593.5814058
593.8296924
594.129171
594.4927388
594.9143785
595.3877321
595.8948083
596.3962949
596.8182807
597.0969491
597.1176605
596.5940605
595.2380773
593.6022875
594.0727517
595.8145557
596.7190366
597.2655582
597.5765704
597.8227774
597.2370339
595.670587
594.3263512
592.4845228
588.9574341
582.2473287
570.5001587
552.5935545
527.1849405
492.9732165
448.4719022
392.3858825
324.2417942
246.5323672
154.7524344
70.28906614
593.3229453
593.1982021
593.1387501
593.0730058
593.0426092
593.0508069
593.0791621
593.1221812
593.1702649
593.2371723
593.3165686
593.4225078
593.5636702
593.7429085
593.9633454
594.230315
594.5479009
594.9261048
595.3641706
595.8497413
596.3739598
596.8947483
597.366434
597.7184884
597.8400885
597.6181596
597.0152039
596.1527731
596.070587
596.776708
597.7928225
599.0189708
599.3145918
600.2904974
599.498632
597.3246144
597.3231217
595.8934447
592.3426606
585.6399086
574.1807538
556.6593385
531.6696943
497.7624417
453.4068567
397.2802532
328.8013745
250.1272707
157.2465446
71.43174401
593.5406683
593.41708
593.3602597
593.2979158
593.2725978
593.2869002
593.3224712
593.3739143
593.4309653
593.5075719
593.5975939
593.7146954
593.8669633
594.0566577
594.2861921
594.5598591
594.8803814
595.2558047
595.6844238
596.1485326
596.6344841
597.1087555
597.5242395
597.8117992
597.8985669
597.7356988
597.3434011
597.0020505
597.366854
598.4327234
599.6029582
601.0560947
600.9782406
602.7274297
602.0096187
597.6498088
598.2340739
597.5203226
593.7926168
586.9399056
575.6455802
558.4347801
533.8772959
500.4120051
456.4211361
400.5330941
331.9428379
252.7582922
159.1726947
72.2726976
593.747441
593.6244906
593.5694648
593.5094872
593.4876726
593.506085
593.5466375
593.603724
593.6664669
593.7488282
593.8449754
593.9678022
594.124709
594.3172576
594.5469791
594.8168578
595.1286325
595.4867279
595.8909058
596.3239491
596.7696833
597.2106326
597.614201
597.9357439
598.1407569
598.2158854
598.2268029
598.291526
598.6399813
599.3480608
600.1580768
601.086396
601.3134831
601.9405375
601.8897742
599.6530983
599.1535206
597.4461207
593.2725173
586.0501047
574.6117122
557.4495602
533.0391745
499.811992
456.106474
400.5334016
332.157078
253.0712242
159.4060212
72.36865757
593.9429226
593.8206905
593.7672804
593.7092443
593.6903433
593.7118581
593.7559313
593.8164838
593.8829047
593.9682901
594.0669654
594.191191
594.347681
594.5371687
594.7603111
595.0188651
595.314016
595.645945
596.0148152
596.4085032
596.8113054
597.2063041
597.5713654
597.8774222
598.098289
598.2238024
598.3136013
598.4789646
598.8498086
599.4946689
600.2708215
601.0054917
601.412251
601.5971927
601.0767123
599.4812507
597.9390616
595.451955
590.8275066
583.0851476
571.1537092
553.6862616
529.1936548
496.0692977
452.6357942
397.4234833
329.5442287
251.156146
158.1323401
71.78975792
594.1250585
594.0026942
593.9494716
593.8918045
593.8739738
593.8964737
593.9414425
594.0025267
594.069813
594.1548308
594.2520985
594.3737427
594.5254764
594.7071219
594.9183647
595.1600034
595.43224
595.7334426
596.0613483
596.4098048
596.7646202
597.1118967
597.4327597
597.7176845
597.9535122
598.1397355
598.3246045
598.5687513
598.9154526
599.3742463
599.8558239
600.227589
600.3246499
600.0905674
599.3261635
597.7634079
595.4638913
591.9863206
586.4527367
577.854297
565.1024246
546.9675198
522.0207362
488.6632538
445.2559261
390.4292671
323.3380745
246.1794057
154.8130422
70.2522373
594.2963896
594.1746091
594.1223478
594.0665765
594.0496339
594.0731566
594.1186642
594.1797221
594.2466291
594.3293702
594.4228255
594.5388592
594.6823204
594.8521141
595.0471482
595.2673794
595.5121699
595.7792503
596.0648704
596.3628933
596.6648415
596.95878
597.2294552
597.4702913
597.6755954
597.8385605
597.9874138
598.1512843
598.3476548
598.5704073
598.7502233
598.76807
598.4583675
597.7081045
596.357942
594.162361
591.0488347
586.6337075
580.0853111
570.4299698
556.643581
537.583502
511.9026137
478.0812634
434.5738813
380.1720482
314.1584459
238.8517772
149.9546159
68.01173764
594.4523099
594.3291325
594.2746088
594.2183845
594.1986197
594.2198953
594.2625718
594.3205035
594.3839007
594.4612389
594.5486928
594.6576125
594.7913153
594.9476117
595.1247199
595.3218519
595.5375645
595.7689529
596.0116049
596.2590855
596.5041333
596.7372303
596.9470119
597.1269926
597.2680475
597.3662299
597.4351837
597.4847274
597.5116826
597.4752557
597.2998149
596.8805706
596.0682578
594.749842
592.7929889
589.8248281
585.7599062
580.1768128
572.3189857
561.3420757
546.2662578
526.0089127
499.3333331
464.8193947
421.0955265
367.1099009
302.4090326
229.3796924
143.6402272
65.1051246
594.6021841
594.479431
594.4257702
594.367313
594.3506873
594.3737642
594.4155735
594.4718948
594.5325419
594.599717
594.6793944
594.779402
594.9003366
595.0397012
595.1956592
595.3667851
595.5508476
595.7442574
595.9421086
596.1378824
596.3239804
596.4907941
596.6295311
596.7309067
596.7830928
596.7820785
596.7207353
596.5945971
596.3796948
596.015041
595.4267741
594.5107378
593.1119315
591.0943988
588.2964505
584.4116523
579.3172675
572.4938944
563.2978369
550.9065704
534.4086439
512.8151332
485.0113821
449.7231808
405.7646817
352.3042529
289.1542831
218.6962355
136.6416684
61.91252819
594.7294288
594.6041382
594.5454927
594.4827344
594.4590048
594.4755052
594.5147025
594.5647375
594.6165902
594.6748791
594.7490419
594.8423463
594.952674
595.0773501
595.2143351
595.3616171
595.5160515
595.673395
595.8279879
595.9729683
596.0999624
596.1995645
596.2603493
596.2716987
596.2192218
596.091706
595.8701751
595.5349985
595.0468944
594.3456587
593.3396178
591.917738
589.9203413
587.1928108
583.5390853
578.7336382
572.4898743
564.3607998
553.7378616
539.8529035
521.8635768
498.8629306
469.8656678
433.7919937
389.633728
336.8417719
275.3865849
207.4111303
129.3492858
58.60926772
594.8570776
594.7334427
594.676472
594.6187433
594.5989585
594.6206314
594.6602476
594.7044423
594.7458407
594.7946931
594.8575461
594.9379532
595.032442
595.1378844
595.2521555
595.3725556
595.4952798
595.6150741
595.7256391
595.8191209
595.8863941
595.9162926
595.8960186
595.8110624
595.6443685
595.3757523
594.978237
594.4173718
593.644714
592.5897267
591.1526319
589.2073262
586.588381
583.1267085
578.6187106
572.8190145
565.4312791
556.0015327
543.9621498
528.6136111
509.1737036
484.8178445
454.6905664
417.9090793
373.6625053
321.658302
261.9920121
196.3924421
122.2712405
55.42694055
594.9617733
594.8325791
594.7670436
594.6988877
594.6690903
594.6811345
594.7052479
594.7261422
594.7626467
594.8122931
594.8749803
594.9523067
595.0389755
595.1328881
595.2316374
595.3319772
595.429168
595.5174127
595.5894096
595.636644
595.6485689
595.612801
595.51378
595.3347668
595.05272
594.6415571
594.0668336
593.2834068
592.2306964
590.8285849
588.9764482
586.5276682
583.3168386
579.1605932
573.8415982
567.1124196
558.6125619
547.9666127
534.6133899
517.8959756
497.1104978
471.5159951
440.3755133
402.9888631
358.7570428
307.652121
249.7596267
186.3159475
115.8065586
52.52502772
595.0742767
594.9489469
594.8881171
594.8284755
594.808804
594.8255545
594.8391498
594.8601053
594.8931542
594.9322085
594.9802532
595.0374549
595.1056695
595.1790156
595.2560162
595.3319362
595.4009824
595.456463
595.4903751
595.4927583
595.4518986
595.353602
595.1802981
594.9108373
594.5190596
593.9716517
593.2285446
592.2349243
590.9226786
589.2040662
586.9684653
584.0622873
580.3049085
575.5083394
569.4335589
561.8183327
552.3409874
540.5935759
526.0627044
508.1362659
486.1682536
459.5112483
427.5302087
389.6687323
345.5133248
295.1298129
238.8998857
177.534179
110.1483267
49.97558557
595.1611815
595.0229269
594.9418161
594.8679539
594.8330402
594.8189727
594.8126803
594.8305124
594.8605717
594.8981762
594.946602
595.0057944
595.0725022
595.1441713
595.2137277
595.2776726
595.3296341
595.362881
595.3686984
595.3364197
595.2534109
595.1036584
594.8674308
594.520494
594.0332588
593.3676673
592.4766137
591.3013338
589.7614914
587.7708752
585.1942123
581.8871201
577.6695601
572.3098107
565.5988338
557.2333987
546.9736531
534.2942346
518.7628523
499.8443918
476.9243988
449.4250619
416.7988192
378.61183
334.5611741
284.6905069
229.6053555
170.2669995
105.4501106
47.82891796
595.2768548
595.1423673
595.0761944
595.0227682
594.9817961
594.9581641
594.9563435
594.9648536
594.9805332
595.0061874
595.0424193
595.0869457
595.1371878
595.1898228
595.2405476
595.2835292
595.3137363
595.3232844
595.302477
595.2386006
595.1191803
594.925203
594.6373549
594.2264507
593.6619473
592.8985633
591.8901867
590.5636752
588.8476027
586.630018
583.7934952
580.1672332
575.5847361
569.8023132
562.606043
553.6756055
542.8468723
529.4354891
513.1147541
493.4412147
469.8000534
441.6860498
408.5830389
370.1944281
326.2557556
276.8903412
222.3682024
163.9602445
101.8085022
46.14899376
595.3621186
595.1446642
595.0491701
594.9794683
594.9219305
594.8885131
594.880054
594.8897386
594.9123053
594.9456546
594.988134
595.0376949
595.0914172
595.145766
595.1959655
595.2364872
595.2606824
595.2605035
595.2265353
595.1465084
595.0051989
594.7845199
594.4606732
594.0070358
593.3868843
592.5578428
591.4631092
590.0362211
588.1920729
585.8207481
582.7941908
578.9448746
574.0948683
568.011929
560.4664744
551.1494183
539.9058431
525.9962566
509.1542431
488.9492873
464.8344377
436.303132
402.9183395
364.3908325
320.5627979
271.5236037
217.5749273
159.5956278
99.58136143
44.43908079
595.5516212
595.247862
595.1953761
595.1562027
595.0740397
595.0123945
594.9897172
594.9875241
594.9966138
595.0169964
595.0480531
595.0870814
595.1307571
595.1754254
595.2161213
595.2471579
595.2619219
595.2519833
595.2072271
595.1150769
594.9598685
594.7230379
594.3811479
593.905235
593.2594452
592.3964693
591.2610665
589.7843216
587.8787586
585.4287867
582.3111517
578.3534786
573.3710151
567.126799
559.4149714
549.9299726
538.3813679
524.2939057
507.2338934
486.7755013
462.4252112
433.696541
400.174518
361.5960936
317.8459724
269.0683535
215.647523
158.5968025
99.61704693
45.48754612
590.0741244
589.7906691
589.5964944
589.441635
589.2149703
588.9607298
588.6914762
588.3912832
588.0487703
587.6607643
587.223619
586.7319406
586.1786065
585.5558351
584.8548114
584.0656872
583.1761016
582.173285
581.0407977
579.7622005
578.3151464
576.678247
574.8216267
572.7148702
570.318798
567.5862456
564.4662331
560.8900938
556.7855727
552.0483213
546.5733821
540.2065705
532.8069063
524.1500666
514.1730729
502.5610886
489.0645737
473.5638731
455.5287971
434.6544521
410.5861825
383.0105083
351.6775467
316.3859936
277.0362512
233.7308386
186.8161304
137.592467
85.6712921
38.30113287
589.93802
589.7253208
589.5157106
589.2821902
589.090745
588.8720494
588.6146985
588.3256724
587.9991242
587.6272202
587.2052031
586.7283984
586.1905814
585.5840165
584.8995699
584.1271809
583.2543321
582.2691021
581.155811
579.897737
578.4735577
576.8595794
575.0299236
572.9529791
570.5893578
567.8975468
564.8231805
561.3023355
557.2610619
552.6014761
547.2087877
540.9486845
533.6632777
525.1754595
515.3020675
503.8108745
490.4960245
475.1227542
457.2749559
436.568931
412.6559747
385.2126094
353.9660755
318.6768973
279.221391
235.6283078
188.15025
136.9517237
87.61653743
38.0503975
589.9372774
589.8036584
589.6417706
589.4281743
589.2280378
589.0230672
588.7841566
588.5005018
588.1710915
587.7966933
587.3751561
586.9012388
586.3677719
585.7685487
585.0929531
584.3333644
583.4768805
582.5117342
581.4233802
580.1916438
578.7989271
577.224359
575.4377436
573.4146426
571.113288
568.4943127
565.5040227
562.0832207
558.1582931
553.6369219
548.4024152
542.3374835
535.2674495
527.011417
517.3849543
506.1646525
493.1556717
478.0665761
460.5350666
440.1349441
416.5100426
389.3171318
358.2477196
322.9874431
283.3828979
239.442047
191.4810072
139.8644975
90.7152894
39.87216857
589.954091
589.8251083
589.6688469
589.4436736
589.1925285
588.9865612
588.7735881
588.5127313
588.2038383
587.8509233
587.4541118
587.0081727
586.5055972
585.942336
585.3056642
584.5844151
583.7695682
582.8488093
581.8086152
580.6320815
579.3008421
577.793773
576.0868568
574.1499305
571.9505719
569.4479511
566.5956662
563.3356298
559.6004781
555.3020278
550.3348637
544.5701648
537.870737
530.0382952
520.8719418
510.1390493
497.6223395
483.0726458
466.0985504
446.2684769
423.1804377
396.4556581
365.6882696
330.5286524
290.7377703
246.3092772
197.8090468
143.2322972
92.75484037
41.25217021
590.0346681
589.9268631
589.7963699
589.6118024
589.3975214
589.1745344
588.9776444
588.7424017
588.4513329
588.1099186
587.7262965
587.2939707
586.8127099
586.2680837
585.6580239
584.97223
584.1994104
583.326933
582.3419658
581.2291476
579.970887
578.5463044
576.9326258
575.1023844
573.0264259
570.6677088
567.98436
564.9243839
561.4236814
557.4020547
552.7553021
547.365173
541.0830507
533.724604
525.0740229
514.9034749
503.0469218
489.2041796
472.9528153
453.8295131
431.4171415
405.2601706
374.8958547
339.8837282
299.8845609
254.7707792
205.5120898
148.4423771
95.35112457
42.7769895
590.1280899
590.020207
589.891224
589.7117682
589.5018998
589.2781699
589.0526539
588.8400605
588.5836132
588.268813
587.9128311
587.5208933
587.0800898
586.5826244
586.0217518
585.3890748
584.6751447
583.8686908
582.9575236
581.9272616
580.7608679
579.4389707
577.9404373
576.2405615
574.3144412
572.128597
569.6470665
566.8247937
563.6020496
559.9082765
555.6371742
550.6954197
544.9109116
538.1224878
530.0968542
520.6253131
509.5253036
496.503186
481.1175774
462.8558778
441.2394403
415.8300708
386.001947
351.2162012
311.0088971
265.0135851
214.4154552
155.0301607
99.79852878
44.83630258
590.2670999
590.1672009
590.0523496
589.8941089
589.7136569
589.5193719
589.31059
589.0906563
588.8552281
588.5770405
588.2497562
587.8835668
587.4757621
587.0184715
586.5046951
585.9270372
585.2766132
584.5421554
583.7122023
582.7730413
581.7091031
580.5021457
579.1324575
577.5782072
575.8174765
573.8232395
571.5648676
569.0061393
566.0961978
562.7684208
558.9211533
554.4842792
549.2723929
543.1222526
535.7948248
527.1240488
516.869797
504.7698255
490.3515497
473.0501555
452.346854
427.7933239
398.6041387
364.1068413
323.7066542
276.9109361
224.7029502
162.7903397
105.0283014
47.25979873
590.418855
590.3194702
590.2064813
590.05273
589.8788821
589.6988401
589.5041228
589.2960266
589.070572
588.8246591
588.5415459
588.2196408
587.8585748
587.4539475
586.9998163
586.4896459
585.9152433
585.2666987
584.5321177
583.698763
582.7516631
581.6736188
580.4464727
579.0504063
577.4664657
575.6753412
573.6539118
571.3752702
568.7980618
565.8583826
562.4743382
558.578111
553.9891783
548.5016376
541.8830656
534.0501112
524.7004467
513.6118924
500.2648053
484.028149
464.341398
440.6933431
412.2062212
378.0533719
337.4685038
289.8530004
235.8729438
171.2711101
110.7418495
49.87642048
590.6028623
590.5088698
590.4052606
590.265996
590.111526
589.9485789
589.7817274
589.5996468
589.3925195
589.168517
588.9229396
588.6440361
588.3288332
587.9762686
587.5827337
587.1422813
586.6474438
586.089321
585.4573109
584.7383401
583.9171519
582.9770258
581.9003359
580.6687335
579.265514
577.6777189
575.8936294
573.9000374
571.6616484
569.1263751
566.2257932
562.8967241
558.9875813
554.2826088
548.5697732
541.5829758
533.1459801
523.0563473
510.770177
495.6145811
476.959746
454.2376608
426.4473523
392.6377813
351.8630739
303.3816678
247.5321491
180.2810647
116.8865411
52.73426965
590.7988013
590.7059783
590.605212
590.4728297
590.3243298
590.1806108
590.0334188
589.8753592
589.6953053
589.4931426
589.2876122
589.0576308
588.795588
588.5024396
588.1771117
587.814764
587.4086393
586.9506109
586.4306216
585.8359185
585.1512151
584.3589865
583.4382108
582.3716874
581.144254
579.7529282
578.1964833
576.4755348
574.5779203
572.4646971
570.0645372
567.2968765
563.981096
559.9100548
554.9052861
548.7145207
541.4055718
532.5527139
521.4599621
507.411939
489.7907107
467.9464051
440.7772333
407.2364792
366.2416019
316.8563055
259.0566806
189.2055449
122.9314224
55.5139613
591.0175774
590.9292008
590.8378765
590.715654
590.5826842
590.4558398
590.3296401
590.1965935
590.0449549
589.8744644
589.7073428
589.5230491
589.3135338
589.0807486
588.8252153
588.5434628
588.2298391
587.8772497
587.4763104
587.0138058
586.4718878
585.8328446
585.0739632
584.1773786
583.1218649
581.90346
580.5378513
579.0436497
577.4452031
575.7374919
573.8417478
571.6711272
569.0707654
565.812157
561.6308115
556.3153413
549.9209128
542.0407432
532.0632795
519.1033559
502.474735
481.398545
454.7616603
421.4352777
380.2342886
330.0027072
270.3942692
198.0291515
128.9573531
58.33447709
591.241338
591.155661
591.0690075
590.95659
590.8362361
590.7252854
590.618759
590.5096359
590.3861838
590.2483667
590.1202927
589.982612
589.8276626
589.6580244
589.4755079
589.2781974
589.0619002
588.8209196
588.5465084
588.2235514
587.834281
587.3583156
586.7660744
586.0345323
585.1388664
584.0687343
582.860938
581.5760655
580.2741974
578.9759404
577.5544407
575.8506675
573.6485822
570.7921986
567.0456806
562.3582575
557.5546281
551.3169158
542.5319279
530.5698507
514.8495021
494.4486609
468.2245096
434.9297606
393.3061062
342.0881533
280.8116905
206.0150712
134.3605882
60.83345861
591.4807801
591.3981343
591.3171692
591.2149459
591.1076505
591.0137523
590.927321
590.8426881
590.7480749
590.6436274
590.5546481
590.4629684
590.3617504
590.2546607
590.145019
590.0326615
589.9153294
589.7891611
589.6456848
589.4696895
589.2433603
588.941309
588.5268858
587.9544503
587.1861019
586.1978672
585.0130473
583.7905003
582.7072196
581.842641
581.0338331
580.0492235
578.6844647
576.6381996
573.3562742
569.2791355
564.4694061
559.447816
552.1942948
541.462966
526.6792708
506.9288622
481.0547647
447.7624119
405.6938281
353.5200168
290.6299439
213.4969235
139.3727333
63.12766527
591.7230567
591.6431343
591.5674257
591.4741692
591.3788504
591.2999884
591.2327797
591.1711597
591.1037564
591.0314718
590.9803475
590.9330916
590.8840212
590.8380121
590.7998979
590.7714323
590.7526176
590.7419045
590.7307544
590.7072401
590.6535922
590.5390478
590.3177321
589.9319668
589.3133194
588.4353807
587.2973849
586.0871035
585.1588866
584.606684
584.1540745
583.5043776
582.4852418
580.7518016
576.3222501
571.9559984
573.757766
568.3119473
561.1633706
551.5429183
537.713291
518.5509597
493.0012822
459.561375
416.9268064
363.6624707
299.2532906
220.0153512
143.7093047
65.11494159
591.9708667
591.8937346