/*--------------------------------*- C++ -*----------------------------------*\
| =========                 |                                                 |
| \\      /  F ield         | OpenFOAM: The Open Source CFD Toolbox           |
|  \\    /   O peration     | Version:  2.2.1                                 |
|   \\  /    A nd           | Web:      www.OpenFOAM.org                      |
|    \\/     M anipulation  |                                                 |
\*---------------------------------------------------------------------------*/
FoamFile
{
    version     2.0;
    format      ascii;
    class       surfaceScalarField;
    location    "8";
    object      phi;
}
// * * * * * * * * * * * * * * * * * * * * * * * * * * * * * * * * * * * * * //

dimensions      [0 3 -1 0 0 0 0];

internalField   nonuniform List<scalar> 
265716
(
38.35029302
-1.274428503
-0.8309831529
-41.882989
2.907670816
2.730437017
39.77419548
-0.8982342455
-0.1502323364
-0.07222212516
-0.3032135813
40.03363101
-0.14130513
0.1181741501
-0.07986904266
-0.1564353234
40.09216116
0.01848284853
0.06103698688
-0.05816070093
-0.07988908633
40.11938495
0.03337160889
0.04059120085
-0.04762662975
-0.05355976526
40.13673346
0.03314426471
0.03663231984
-0.041978074
-0.04514671931
40.15084336
0.03194114774
0.03423108872
-0.03864659585
-0.0416352508
40.16330846
0.0306362919
0.03227465469
-0.03605844918
-0.03931720918
40.17472397
0.02911899061
0.03048487411
-0.03365725572
-0.037361818
40.18538998
0.02751653674
0.02893315113
-0.03148845508
-0.03562681662
40.19548761
0.02588484573
0.0276484089
-0.02954248044
-0.03408807401
40.20517226
0.02421425154
0.02666996433
-0.02779183782
-0.03277653193
40.2145942
0.02245485556
0.02597674111
-0.02620156129
-0.03165160566
40.22377397
0.0205819617
0.02551288499
-0.024744902
-0.03052914978
40.2327689
0.01855905027
0.02533213556
-0.02339104047
-0.02949467569
40.24159904
0.01640501122
0.02548492843
-0.02213440059
-0.02858503464
40.25025077
0.01414273852
0.02596605265
-0.02089541626
-0.02786466944
40.25849367
0.01169730975
0.02685790746
-0.01960093524
-0.02719645708
40.26635926
0.009101127893
0.02806892231
-0.01829827112
-0.02673688968
40.27344375
0.006433845225
0.02985269315
-0.01702585244
-0.02634429949
40.27968412
0.003748333572
0.03186113334
-0.01572994995
-0.02611933454
40.28438698
0.001090067105
0.03482068789
-0.01458245662
-0.02603017476
40.28699214
-0.001504135629
0.03855501471
-0.01349178261
-0.02616376648
40.28678744
-0.003944626211
0.04305331568
-0.01244105859
-0.0264620193
40.28235941
-0.0064271439
0.04935274708
-0.01154681088
-0.02695057216
40.27352501
-0.008708671178
0.05594698525
-0.01058890649
-0.02781442147
40.25948366
-0.01072806189
0.06297435974
-0.0100239192
-0.02818138854
40.23924906
-0.0129536313
0.0717066291
-0.008862395663
-0.02965589794
40.21382777
-0.01486230929
0.08002041864
-0.009601453907
-0.03013572365
40.18590549
-0.01631776143
0.08738945076
-0.01117532074
-0.03197299263
40.16278476
-0.01453421348
0.09860848665
-0.02588101163
-0.03507245001
40.15920957
-0.006469711223
0.1124668302
-0.06014174729
-0.04228021007
40.1936409
0.005965075937
0.1217791529
-0.110559977
-0.0516180951
40.24355475
0.003871265376
0.1313780637
-0.1305199354
-0.0546443471
40.24374017
-0.041387625
0.1011274052
-0.03619639012
-0.02372994977
40.13240888
-0.06340227777
0.07275993112
0.03402107258
0.06795178369
39.74173385
-0.1057610876
0.07454244155
0.1378534327
0.284039407
39.44655645
-0.1454114355
0.07297254739
0.1936376951
0.1739772678
39.30143348
-0.1418013375
0.1057593767
0.1299005462
0.05126212272
39.23256091
-0.1417547433
0.1332057469
0.08825910577
-0.01084061126
39.19374907
-0.1417789889
0.1599215735
0.05757598753
-0.03690994386
39.16581374
-0.1433208417
0.1816976719
0.0377164172
-0.04816094939
39.139481
-0.1466951495
0.198756766
0.02721219779
-0.05294394831
39.11164294
-0.150066652
0.2088572011
0.02333529147
-0.05429085605
39.08406181
-0.1546315664
0.2155039947
0.02226094425
-0.05555586407
39.055681
-0.1571571146
0.2162035892
0.02301434128
-0.05368410958
39.04386934
-0.1485011662
0.201799267
0.01881799891
-0.06030706125
38.85577946
0.002713426863
0.1342748321
0.06520531404
-0.01410373207
37.91502594
0.7513985106
0.3433431912
-0.04277054601
-0.1112187823
1.103964472
0.9185850582
39.72128338
-1.9085506
-1.920255393
44.83720822
-0.2640603958
-2.108918084
-47.99020054
4.251542467
43.17188686
0.2840768698
1.567641803
-1.084631422
43.06635106
0.02787632329
0.09686393338
-0.1605094261
43.08243654
0.03482655979
0.06611268573
-0.09854169295
43.10480638
0.04014939961
0.05227536036
-0.08142280753
43.12078092
0.0423388714
0.05278125503
-0.07795016409
43.13386827
0.04283480301
0.05386686912
-0.07784765258
43.14557965
0.042276234
0.05491100198
-0.07826204846
43.15640034
0.0409791414
0.05582303921
-0.07850365184
43.16656454
0.03922093475
0.05652975196
-0.07839804506
43.17622224
0.0371194944
0.05711391927
-0.0780060224
43.18553649
0.03466828326
0.05765878876
-0.07742672872
43.19470051
0.03180930199
0.05819890406
-0.0767171022
43.2038986
0.02851767489
0.05875829498
-0.0758916976
43.21328152
0.02479637613
0.05938197502
-0.07500193469
43.2228776
0.0206982045
0.06017417505
-0.07406302019
43.23283873
0.01628992105
0.06103370431
-0.07314172488
43.24295859
0.01160827899
0.06214404487
-0.0721744157
43.25309219
0.006746740126
0.06354767286
-0.07132658032
43.26305472
0.001817119919
0.06507036344
-0.07041563998
43.27243674
-0.003296590198
0.06736368471
-0.06970045056
43.28088684
-0.008268833931
0.06998738131
-0.06907801518
43.28756724
-0.0130153833
0.07354859344
-0.0687174969
43.29139403
-0.01736197192
0.0781811662
-0.06859012456
43.29184297
-0.02137303967
0.0831167989
-0.06861984188
43.28720875
-0.02506522897
0.09005846789
-0.06906747479
43.27775544
-0.02833963855
0.09610375279
-0.06903924513
43.26152074
-0.03164503596
0.1053701256
-0.07044416288
43.24052582
-0.035296465
0.1119481407
-0.07051947639
43.21395736
-0.04018970275
0.122529894
-0.07208912836
43.18863386
-0.04661127539
0.1306056893
-0.07320539976
43.16894827
-0.05630941938
0.1440091474
-0.07448412169
43.1665065
-0.06775193475
0.1524144413
-0.07625735679
43.17816046
-0.08475758568
0.1498836286
-0.07290973822
43.18191815
-0.1007877111
0.1098155545
-0.0541744033
43.1293815
-0.1172802577
0.06941971597
0.03699351337
41.97784899
-0.136192924
0.06333728863
1.118625958
41.45958011
-0.1478858347
0.06239837433
0.4583439969
41.26711809
-0.1629680491
0.09545957133
0.1181672772
41.20560022
-0.1790552118
0.1193049307
-0.02048839401
41.18118655
-0.1946545672
0.1420096514
-0.06472264855
41.16352237
-0.2065745605
0.1604214034
-0.07950549496
41.1446721
-0.2162618888
0.1746870235
-0.08627218516
41.12344737
-0.222669246
0.1826732928
-0.08884798637
41.10216896
-0.2294520259
0.1873447134
-0.0912483204
41.07928473
-0.2338406309
0.1896455246
-0.09008036443
41.09338232
-0.2367256212
0.1692640434
-0.09514002811
41.25707622
-0.2488865262
0.1337238181
-0.04582010075
44.10424337
-0.5501994511
-1.368565908
-0.1770045113
0.02154709173
2.303970693
46.77114987
-3.888459769
47.43219977
-0.009828823751
-2.452787692
-49.32565087
4.092007414
45.07195254
0.03123269502
4.156023749
-1.542932194
48.8448851
-0.1474123581
-3.822215743
0.2245720681
48.81240925
-0.02617458161
-0.05185980633
0.1453370025
48.78450586
0.02751031588
-0.003524839608
0.04406753638
48.78266966
0.03456539936
0.02966039928
-0.02005048873
48.79369125
0.03480865016
0.04656940938
-0.04956457418
48.80868076
0.03355111368
0.05390186294
-0.06016599201
48.82406642
0.03109388013
0.05692920868
-0.06242931756
48.83913095
0.02792782528
0.05842070403
-0.06219182997
48.85380792
0.02428942226
0.0595170571
-0.0613636202
48.86819908
0.0201584911
0.06057433046
-0.06045535434
48.8825031
0.01537166419
0.06172704891
-0.05959305152
48.89685565
0.009844938867
0.06312981646
-0.05880924822
48.9115062
0.003516313992
0.06474660263
-0.05811666809
48.92638292
-0.003285771005
0.06663883114
-0.05753115841
48.94160823
-0.0104648498
0.06861741337
-0.05708749955
48.95713612
-0.01835125731
0.07118929302
-0.05675721594
48.97303569
-0.02670695662
0.07402928958
-0.05647467401
48.98881954
-0.0353324975
0.07762964419
-0.05626338555
49.00409272
-0.04400273999
0.08172562799
-0.05629212067
49.01835435
-0.05247466998
0.08644070193
-0.05649600362
49.03080643
-0.06065692385
0.09202611014
-0.05683616728
49.04038398
-0.06798799757
0.0984511355
-0.05740231908
49.04606934
-0.07463711364
0.105790355
-0.05821141092
49.04643545
-0.08030887745
0.1141295121
-0.05925195535
49.04061251
-0.08567684743
0.1236197755
-0.06045976915
49.02777025
-0.09014168999
0.1331728217
-0.06183420103
49.00800794
-0.09531028401
0.1431827902
-0.06340684326
48.98240003
-0.1019382987
0.1520824587
-0.06472612019
48.95415142
-0.1110977524
0.1588456371
-0.06611083516
48.92771112
-0.1240186916
0.1603658154
-0.06621711785
48.91116583
-0.1404201443
0.1552597322
-0.06604764966
48.9093856
-0.1627501956
0.1401451034
-0.06037375498
48.92323498
-0.1863680348
0.1165234895
-0.04479474402
48.92342947
-0.2163033075
0.05645069897
0.04237598005
47.92208341
-0.2392598758
-0.05220352591
1.156615096
47.51194245
-0.261329115
0.04200322042
0.4815793835
47.3736055
-0.28992755
0.1292249827
0.1360693049
47.33821926
-0.3188401037
0.1785785522
-0.003409870696
47.32839694
-0.3438447478
0.2076819176
-0.04867195717
47.31984746
-0.363616891
0.2296223112
-0.06403329219
47.30698616
-0.380428281
0.2487545574
-0.07172962708
47.29086636
-0.3926430283
0.260921412
-0.07483089749
47.27510582
-0.4060112325
0.2712164442
-0.0788999624
47.24693535
-0.4106329081
0.2824152776
-0.07745636637
47.19352638
-0.3634908965
0.2723536797
-0.09218367119
42.38477405
-0.2085532866
4.804991144
-0.03657603339
46.37302506
-0.381983561
-4.007932806
-0.1485349041
-0.3415672804
2.632656054
48.08909946
-3.985616309
47.85962971
0.004185017511
-2.521702584
-49.37251643
4.020575666
45.07465564
0.009541954025
4.226821115
-1.42015615
51.96635257
0.009055705077
-7.809908323
0.761743513
52.37859026
0.01469967179
-0.9655194925
0.5124077324
52.2647769
0.02613806916
-0.1029355768
0.2181213597
52.23911406
0.03031227635
-0.005630573387
0.03554674573
52.24259517
0.0290991257
0.03796679272
-0.035738167
52.25585038
0.02686930077
0.05334860018
-0.05992177898
52.27102523
0.02371573411
0.05977992318
-0.06757639839
52.2856596
0.01963330118
0.06278235633
-0.0691219605
52.29974749
0.01474042696
0.06447004892
-0.06900869441
52.31358043
0.009117617825
0.06581042422
-0.06860220882
52.32726229
0.002731047945
0.06706988513
-0.06811085349
52.34132793
-0.004997391305
0.06825013323
-0.0674731323
52.35593915
-0.01376330272
0.06954117059
-0.06687247911
52.37124896
-0.02330180885
0.07105154734
-0.06634499735
52.38747628
-0.03367962485
0.07281772998
-0.0658299849
52.40453151
-0.04484696617
0.07480165027
-0.06536085231
52.42234273
-0.05662286559
0.07715974328
-0.06505477415
52.44066608
-0.0687613908
0.08001830589
-0.06491243817
52.45898639
-0.08095752729
0.08354611756
-0.06491135394
52.47666872
-0.09270271374
0.08765402105
-0.0651079972
52.49283656
-0.1039874663
0.09257001632
-0.06540712279
52.50626606
-0.1138765823
0.09845172271
-0.06599248413
52.51585491
-0.1228164947
0.1054377745
-0.06684731734
52.51990864
-0.1297677691
0.1133723348
-0.06796732213
52.5172375
-0.1361368556
0.122485646
-0.06935488578
52.50678263
-0.1408449777
0.131907163
-0.07074941935
52.4885225
-0.1459454
0.1412762907
-0.07238169107
52.46319916
-0.1525576547
0.1496403281
-0.07369775965
52.43448661
-0.1615587477
0.1536304952
-0.07445786798
52.40456887
-0.1713449891
0.1511981797
-0.07395533117
52.38695967
-0.1908928137
0.1396499445
-0.07156968616
52.38259639
-0.2120959073
0.1161288592
-0.06242145778
52.38661116
-0.2364533489
0.07568460742
-0.02961572601
52.35694534
-0.2661442111
-0.004692338068
0.08419746554
52.20612003
-0.2918101341
-0.1699227594
0.3732965464
52.12242966
-0.3201451229
-0.06908989795
0.2115946417
52.09895511
-0.3535401177
0.03108634239
0.05599836373
52.10300147
-0.3887448857
0.0844417416
-0.0185854568
52.11156824
-0.4205587091
0.1134485205
-0.04530418524
52.11264682
-0.4420574881
0.1323485216
-0.0549890597
52.10689447
-0.4610310531
0.1464686655
-0.06011644883
52.09763798
-0.4768914922
0.1559470796
-0.06244508248
52.08554429
-0.4916276847
0.163725795
-0.06601867874
52.0760131
-0.5034491299
0.1663444867
-0.0640002118
51.33465553
-0.5045941306
0.9608089805
-0.07835214601
42.38230897
-0.4635088338
9.231703
-0.02440435
46.68762393
-0.4260517852
-4.122341421
-0.1389067732
-0.4116761592
2.663370623
48.0957796
-4.001417634
47.90798196
0.00337293317
-2.523525481
-49.38685623
4.003212057
45.06903554
0.006950450366
4.229546137
-1.388008064
51.983967
0.01282542137
-8.007511369
1.088810378
53.06976179
0.01704124189
-1.823418727
0.735282527
53.84502163
0.0209949469
-1.092715057
0.3225985233
53.81382968
0.02305889237
-0.03453488583
0.07298041116
53.81669389
0.02165507822
0.02923318377
-0.02465313827
53.82941574
0.01847703208
0.0499060841
-0.05423544467
53.84554835
0.01429118413
0.05673897383
-0.06344680818
53.86186768
0.009266747954
0.05918587841
-0.06513839165
53.87802769
0.003172170116
0.06012615985
-0.06471764296
53.89414825
-0.003693012805
0.0608317042
-0.06414133579
53.91032847
-0.01149682903
0.0615407451
-0.06349277989
53.92659173
-0.02076935083
0.06238033602
-0.06287130569
53.94312462
-0.03140369757
0.06336538348
-0.06225755596
53.96026472
-0.04335354957
0.06457279732
-0.06166081268
53.97820007
-0.05657033268
0.06609861857
-0.06114295176
53.99709187
-0.07095873325
0.06794982267
-0.06072954533
54.01697765
-0.08631483082
0.07021703946
-0.06041058175
54.03774287
-0.1023155209
0.07300149246
-0.06021228726
54.0590163
-0.1184835418
0.07638862382
-0.06013577049
54.08026052
-0.1341918448
0.08054218566
-0.06029702644
54.10034372
-0.1489772493
0.08553137268
-0.06062464953
54.11794892
-0.1617821241
0.09148715577
-0.06118677613
54.13160204
-0.1731058943
0.09878972273
-0.06215360797
54.13980433
-0.1814669626
0.1068507406
-0.06335414226
54.14022064
-0.1881498343
0.1165027942
-0.06490662443
54.13218082
-0.1924950624
0.1257925879
-0.06610335029
54.11476047
-0.1959319678
0.1354275045
-0.06802076478
54.09023608
-0.2004704036
0.1415788625
-0.06914255078
54.06130186
-0.207845871
0.1444021412
-0.06918238795
54.03729644
-0.2186951829
0.1396119072
-0.0682579688
54.01972777
-0.2323991395
0.1245083981
-0.06543545419
54.01785731
-0.2499195342
0.09736620561
-0.05767399265
54.03303436
-0.2714100493
0.05833690817
-0.03855908971
54.04838075
-0.2975923571
0.00277442391
0.01332458298
54.04841676
-0.3247094118
-0.06114381743
0.09400498104
54.0578934
-0.3554107794
-0.03286182224
0.05864735491
54.07660936
-0.3896547137
0.009653669287
0.007742652968
54.09853691
-0.4264566915
0.03734082741
-0.02156104902
54.11072893
-0.4581929029
0.0593304773
-0.0338915628
54.11939301
-0.4893177737
0.07820924133
-0.03961702579
54.11948789
-0.5122836537
0.09488342167
-0.04372996145
54.11446653
-0.5320182797
0.1064785731
-0.04633465705
54.11242925
-0.557589218
0.1187878993
-0.05079426336
53.15116619
-0.5615887017
1.066929962
-0.04753096866
51.56920412
-0.5580740167
1.696485498
-0.06104738892
42.40100089
-0.5086415673
9.21883855
-0.005505758137
46.71732087
-0.4551310337
-4.165717925
-0.1215244185
-0.4381691404
2.615587078
48.1336657
-4.005439132
47.91551761
0.001988907297
-2.523561457
-49.39009043
3.999518547
45.07024188
0.004198082514
4.228258391
-1.380230118
51.92438088
0.008095238817
-8.085485001
1.236076362
52.99657353
0.0106974294
-1.898900721
0.8330520482
54.6955341
0.0129368944
-2.057182284
0.3662799413
55.09284133
0.01432978569
-0.4745070353
0.08592910332
55.0994289
0.01405326002
0.02316322054
-0.02214875372
55.1120113
0.01087492306
0.04877437156
-0.05375442803
55.12715455
0.006039104737
0.0569248608
-0.06381576202
55.14164357
0.0005735003801
0.0601133883
-0.06590887397
55.15552551
-0.006729034962
0.06166943941
-0.06564984658
55.16919033
-0.01501205677
0.06272512937
-0.06507054374
55.18311941
-0.02466628876
0.06371519401
-0.06447442798
55.19739225
-0.035912546
0.06471992336
-0.06384916075
55.21228218
-0.04886276542
0.06580541371
-0.06323585586
55.22807287
-0.06353965282
0.0670743523
-0.06267851334
55.24500324
-0.07992092455
0.0686040893
-0.06218345505
55.26329431
-0.09789809307
0.07041319957
-0.06176452884
55.28311395
-0.1172397859
0.07253467736
-0.06142900774
55.30446485
-0.1375521647
0.07510085313
-0.06121474536
55.32711012
-0.1582445869
0.07823011077
-0.06111398931
55.35054622
-0.1785397327
0.08209913817
-0.06118704196
55.37370632
-0.1975267091
0.08690778456
-0.06151824193
55.39533328
-0.2141930126
0.09284921261
-0.06206523252
55.41294185
-0.2277975546
0.1001475068
-0.06306458616
55.42503741
-0.2374699682
0.108124855
-0.06421774537
55.42822984
-0.2438293161
0.1181241236
-0.06563760716
55.42183015
-0.2463287019
0.1275416241
-0.06730866064
55.50667494
-0.2477049456
0.0357256698
-0.06879825884
55.48200505
-0.249684117
0.1438361952
-0.06995369458
55.23279303
-0.2512695067
0.3626196085
-0.06998606721
55.06302806
-0.2550475368
0.2743641681
-0.06824910069
55.03332795
-0.2624408021
0.1246462352
-0.06490694327
55.03077772
-0.2738098456
0.08498353821
-0.05854513089
55.04098045
-0.2886548162
0.05416313947
-0.04712430011
55.0758479
-0.3075670544
0.00291762123
-0.02781293922
55.12311973
-0.3292198009
-0.03991850316
-0.002846875737
55.16475919
-0.3551978936
-0.03588440344
-0.005971591139
55.19581003
-0.3853445177
-0.01849038294
-0.01687681611
55.22211108
-0.4209959616
-0.009462252864
-0.02230351044
55.38542721
-0.4537515606
-0.1430264445
-0.02473619401
55.62540598
-0.4944979573
-0.2075444533
-0.02725994296
55.62925063
-0.5229706513
0.03733116068
-0.03049509508
55.52799401
-0.5435123011
0.1452742503
-0.03253070201
55.0910212
-0.5721159739
0.4879633385
-0.0364703844
53.16937026
-0.5692827641
1.961485622
-0.03214575761
51.57815249
-0.5649392272
1.644644876
-0.04656597552
42.40401062
-0.515801074
9.172501516
0.008796413669
46.72329079
-0.4600283512
-4.204644935
-0.1097395616
-0.4418106096
2.58097066
48.14935738
-4.003395929
47.91563993
0.001404589751
-2.523345601
-49.39050657
3.998796827
45.06744617
0.002917835216
4.228268831
-1.378794652
51.89499863
0.005368603017
-8.10861745
1.283791827
52.95605082
0.006818963615
-1.920778313
0.8636047543
54.65746006
0.007512823857
-2.074885256
0.3789002694
55.48041523
0.007602112738
-0.9056227693
0.08939548299
55.87875305
0.006808705376
-0.3693760718
-0.02171695646
55.89145747
0.003712881408
0.04766975951
-0.05321186698
55.90627301
-0.00174321854
0.0560110696
-0.06304399489
55.92138919
-0.008233541509
0.0587759395
-0.06508475034
55.93576097
-0.01620023699
0.05985694166
-0.064757157
55.94975802
-0.02553810935
0.06063130776
-0.06410190875
55.9636357
-0.03652162564
0.06139194872
-0.06341386565
55.97763452
-0.0494151566
0.06217875525
-0.06267450378
55.99207178
-0.06441549549
0.06306915786
-0.06195322158
56.00732453
-0.08164061904
0.06413695527
-0.0612882676
56.02378094
-0.1011300708
0.06543925462
-0.06068607166
56.04180701
-0.1228215299
0.06706081282
-0.060163027
56.06175767
-0.1464877362
0.06902839484
-0.05973069454
56.08382567
-0.1716656769
0.0714591754
-0.059413254
56.10806513
-0.1976132458
0.0743537505
-0.05922416665
56.1340947
-0.223349439
0.07794476388
-0.05916429477
56.16092707
-0.2474022188
0.08239460502
-0.0593512437
56.18753463
-0.2689355591
0.08797359923
-0.05983855884
56.21097263
-0.2855335077
0.09498723156
-0.06068941063
56.22907011
-0.296901498
0.1031324996
-0.06179876837
56.23743971
-0.3018102864
0.1130099129
-0.06339899361
56.23431211
-0.301762683
0.1237580213
-0.06519713262
56.11071441
-0.2965171733
0.2391172335
-0.0667080229
55.99705684
-0.2911855568
0.2226428016
-0.0674853414
55.52351974
-0.2847533717
0.5741744274
-0.06715567088
55.21180065
-0.2809573842
0.4026418259
-0.0650155199
55.1808867
-0.2804414543
0.1100527206
-0.06114023278
55.1679501
-0.2820397971
0.07583926343
-0.05467540371
55.16644196
-0.2854097422
0.04438332144
-0.0461232079
55.20161464
-0.2916230045
-0.01592812853
-0.0351917688
55.26105542
-0.3018903016
-0.06197080857
-0.02480366863
55.3125205
-0.3204848881
-0.06583012652
-0.02035370074
55.34631266
-0.347536694
-0.05383260682
-0.01777186433
55.37376131
-0.3823893864
-0.05163537517
-0.01442617713
55.68365611
-0.4160656291
-0.3339994046
-0.01358693216
56.15137778
-0.4609889229
-0.4854890855
-0.01574823987
56.24951316
-0.4941380757
-0.1081635555
-0.01881141706
55.96155905
-0.5165669777
0.2811960676
-0.02019512019
55.08923507
-0.5487494037
0.8731932951
-0.02424341089
53.17223186
-0.5461615065
1.913896407
-0.02002000483
51.58302884
-0.5426303653
1.601633311
-0.03474340022
42.41308184
-0.4947328647
9.126207818
0.02266695216
46.73246851
-0.4409076872
-4.242073189
-0.0964353767
-0.4246528004
2.542417227
48.17361603
-4.000722939
47.91596358
0.0006353140154
-2.523458719
-49.3904473
3.998712003
45.06802702
0.001410562974
4.22795173
-1.3785077
51.89033332
0.002595726733
-8.115508377
1.295975159
52.9501485
0.003050968353
-1.927044389
0.8709973883
54.65380842
0.002733918642
-2.080874796
0.3819939695
55.47862961
0.001970691677
-0.909389054
0.09019950265
56.27324045
2.003989885e-05
-0.766281485
-0.0215404361
56.52144388
-0.002801431216
-0.1885726881
-0.05311614871
56.53495411
-0.007750456991
0.05543822835
-0.06294091896
56.54799001
-0.01481532482
0.05865532478
-0.06510911353
56.56023868
-0.02365766809
0.06003741134
-0.06482828741
56.57192903
-0.03408666012
0.06109207305
-0.06423346038
56.58333351
-0.04638951701
0.06207439482
-0.0636105568
56.59477398
-0.06094426539
0.06300772732
-0.06291862939
56.60663896
-0.07802325619
0.06397976171
-0.06223652708
56.61936787
-0.09783832899
0.06506268533
-0.06159342022
56.63347419
-0.1205335344
0.0663055438
-0.06100796562
56.64950668
-0.1461312674
0.06774817404
-0.06047049219
56.66805753
-0.1744757291
0.06945113876
-0.06001357201
56.68962149
-0.2050711189
0.07147493366
-0.05963303672
56.71454801
-0.2370988661
0.07394289232
-0.05938341156
56.74270657
-0.2693101155
0.07705640301
-0.05925395573
56.77362227
-0.2998940822
0.08097460924
-0.05939824239
56.80550667
-0.3272729751
0.08615179084
-0.05969872073
56.83576464
-0.3479083839
0.09257962305
-0.0604628434
56.86152139
-0.3618474867
0.1008173249
-0.0616283594
56.87679183
-0.3649614211
0.1112374871
-0.06335717768
56.63871353
-0.3588342209
0.3602342497
-0.06508507333
56.20524872
-0.3447449433
0.5486072716
-0.06691569305
56.00396678
-0.3314158203
0.3088247569
-0.06731429661
55.52315198
-0.314650974
0.5778796661
-0.06716969643
55.21013948
-0.3030353278
0.3998936944
-0.06480551388
55.19212282
-0.295996249
0.09389633838
-0.06032783987
55.17762719
-0.2896896078
0.07541713863
-0.05327410657
55.18467055
-0.2827008713
0.03513954473
-0.04489526176
55.21914345
-0.2749687276
-0.01467753807
-0.03645288887
55.26647795
-0.2696266339
-0.0492886577
-0.03031399906
55.30561472
-0.274789851
-0.06108257359
-0.02375332152
55.33251924
-0.2930502614
-0.0655956223
-0.01580152488
55.35524636
-0.32211897
-0.07455571745
-0.008447700463
55.66380375
-0.3561262902
-0.3628239949
-0.005678752261
56.13067442
-0.402105467
-0.5183303246
-0.007429862016
56.32345632
-0.4402903708
-0.2365840223
-0.01005249874
56.05071611
-0.4662586029
0.2336716327
-0.01124687437
55.08090886
-0.5034594523
0.9399846005
-0.01547471926
53.16962396
-0.5058345286
1.882912877
-0.01196050448
51.58771954
-0.505421109
1.572519201
-0.02782804422
42.42311403
-0.4635061114
9.103046452
0.03032824725
46.74399994
-0.4138937551
-4.256820791
-0.09108013004
-0.3973672705
2.528734867
48.18753347
-3.99955421
47.91530481
0.0002855547307
-2.523387226
-49.39029465
3.998727147
45.06663121
0.0006565903195
4.227916138
-1.378488379
51.88621326
0.001082166146
-8.115975622
1.297907368
52.94374305
0.0008757334882
-1.92736271
0.8720083303
54.64577862
-0.0003565187299
-2.081319337
0.3823743907
55.46890786
-0.001804015104
-0.9095951122
0.09024080382
56.26259216
-0.005039192409
-0.7672253244
-0.02139948793
56.74582933
-0.00827382992
-0.4244984591
-0.05326603089
56.97462856
-0.01354415952
-0.1598864149
-0.0631188082
56.98717297
-0.02058668262
0.05830802195
-0.06508075403
56.99839846
-0.02982839377
0.05964547865
-0.06469987598
57.00874906
-0.04092139863
0.0605387815
-0.06405424481
57.01853168
-0.05416278079
0.06138281362
-0.06339173825
57.0280334
-0.06999685523
0.06220629073
-0.06265497285
57.0376836
-0.08880369498
0.06305439335
-0.06192369313
57.0480059
-0.1109061573
0.06397024854
-0.06122426239
57.05965341
-0.1365963354
0.06498845299
-0.06057270445
57.07339424
-0.1660362901
0.06610727979
-0.05994263669
57.0901337
-0.199194666
0.06735389855
-0.05937395297
57.11076341
-0.2356115259
0.06874715163
-0.05883599696
57.13618532
-0.2745209604
0.07039040141
-0.05838979709
57.16708231
-0.3146143778
0.07246548042
-0.05805785253
57.12118838
-0.3527675555
0.156698872
-0.05793122255
57.06116841
-0.3857205211
0.1762519429
-0.05778434102
57.06315386
-0.4111049607
0.1194207054
-0.05820964332
57.09818985
-0.4266934502
0.08891268591
-0.05910289855
57.12254116
-0.4285036969
0.1000855488
-0.06089492793
56.65446367
-0.4166493214
0.5889614951
-0.06306952158
56.22593968
-0.3928362487
0.5410966109
-0.06448225123
56.02567089
-0.3687754282
0.3030422593
-0.0654156594
55.54776625
-0.3414980349
0.5703831043
-0.06563383915
55.23515245
-0.3193753412
0.3922705398
-0.0633193486
55.21317787
-0.3016185801
0.08602690708
-0.05843211155
55.20042179
-0.2867769619
0.0614381135
-0.05159793078
55.1906682
-0.2712773451
0.04178417099
-0.04345770102
55.21554211
-0.2505570633
-0.01507394807
-0.03421527983
55.2534337
-0.2276418973
-0.05352765381
-0.02635151293
55.28645453
-0.2157163337
-0.07415796338
-0.0179413461
55.31043873
-0.2212051502
-0.08789268026
-0.007941654189
55.33331169
-0.2437002027
-0.1023947726
0.0010965671
55.64434907
-0.2762372548
-0.3957317074
0.004800440341
56.11662009
-0.3209187258
-0.5569068319
0.003442797
56.22379118
-0.3616354149
-0.1870968242
0.001264931381
56.14673208
-0.3923120849
0.002638235675
0.0004670849405
55.07431558
-0.4262075702
0.9991441295
-0.003986761281
53.16865226
-0.4359258603
1.834429103
0.001320322677
51.58432768
-0.4342744305
1.526683141
-0.01350894489
42.42834234
-0.3997603043
9.042521265
0.04971454732
46.74978341
-0.3572541406
-4.30642083
-0.0716608129
-0.3452954992
2.47525512
48.21447093
-3.992014664
47.91523919
-0.0001287089557
-2.523433305
-49.39014064
3.998749324
45.06666803
-0.000125709311
4.227798893
-1.378445193
51.88626805
-0.0003627972969
-8.116437003
1.298282168
52.94382351
-0.001076889339
-1.927867939
0.8722652977
54.64559379
-0.002667270073
-2.082010121
0.3825507737
55.4683272
-0.004523325905
-0.9104477195
0.09043384111
56.26122931
-0.008336146948
-0.7684335519
-0.02117134411
56.74367752
-0.01182092284
-0.4258428673
-0.05305798033
57.18639466
-0.01768923508
-0.375335749
-0.06323602806
57.19750877
-0.02439621609
0.05774819593
-0.06505246057
57.20652575
-0.03358084616
0.0593846569
-0.064648835
57.21428554
-0.04495671963
0.06034098143
-0.06406507151
57.22115801
-0.05874926093
0.06115750736
-0.06344309242
57.22739047
-0.07541765059
0.06192271979
-0.0627339561
57.2334107
-0.09545313077
0.06263586442
-0.06200622911
57.23984374
-0.119332006
0.0632988501
-0.06130560344
57.24746886
-0.1475134971
0.06391068972
-0.06061821034
57.25729863
-0.1803587185
0.06441775427
-0.05992464149
57.27060709
-0.2180566533
0.06478741316
-0.05923341988
57.28913422
-0.2605388362
0.06496953153
-0.05856890727
57.23279198
-0.306694475
0.1464437251
-0.05792756051
57.16720254
-0.3544694961
0.1626071664
-0.05716226739
57.04832037
-0.4011049367
0.2238206358
-0.0566008675
56.85415924
-0.4419769395
0.3063541122
-0.05593646907
56.80976567
-0.473379929
0.1622776206
-0.05560915546
56.8586592
-0.492097506
0.07276411217
-0.05625386863
56.89644677
-0.4924884747
0.08440858132
-0.05821139449
56.67597081
-0.4735112378
0.3380919146
-0.06075463283
56.25303327
-0.4393956745
0.5324291437
-0.06293255651
56.05318977
-0.4009809228
0.2965672376
-0.06451997304
55.57902096
-0.3638622859
0.5612652813
-0.0647342063
55.27177641
-0.3348972849
0.3846109996
-0.06184688644
55.26430088
-0.3142890809
0.07678811859
-0.05664464491
55.27473459
-0.2917316601
0.04270761066
-0.04818917857
55.26950779
-0.2612611938
0.03411993761
-0.0389136286
55.28971037
-0.2134535278
-0.02495282947
-0.03235622632
55.29356744
-0.1580061614
-0.04563503935
-0.02786180755
55.29718482
-0.1249740359
-0.07513158599
-0.01923029228
55.29951808
-0.1165227807
-0.1028344534
-0.004187506668
55.31208537
-0.1367828696
-0.1249419657
0.005451915029
55.58847311
-0.1690426262
-0.3943142847
0.01072598558
55.83543399
-0.2138831778
-0.364581478
0.01058085113
55.85537141
-0.258795045
-0.1320890432
0.009305448052
55.87927739
-0.3013117898
-0.122867035
0.007954479429
55.06637984
-0.3362694179
0.7193685623
0.003585227685
53.17134502
-0.3633372459
1.815980459
0.006461062995
51.59598094
-0.3686216802
1.519805733
-0.01009756109
42.44352144
-0.3468948283
9.048837013
0.05075321614
46.76520597
-0.3069871664
-4.298755555
-0.07319687397
-0.2940335227
2.483525128
48.22623887
-3.995820432
47.91478175
-0.0003105039625
-2.523394349
-49.38997116
3.998765916
45.06581822
-0.0004869732166
4.227770881
-1.378445879
51.88457347
-0.001179339219
-8.116131906
1.298193471
52.94101782
-0.00213200924
-1.927564111
0.8721750517
54.64168122
-0.004050947105
-2.08180498
0.3825254578
55.46301982
-0.006073827171
-0.9102030876
0.09041521634
56.25448551
-0.01028211573
-0.7683997074
-0.02111975415
56.73530048
-0.01375248288
-0.4258542905
-0.05302884514
57.1760716
-0.01986245165
-0.3753383093
-0.06325930236
57.18539189
-0.02638571674
0.05770788747
-0.0650383604
57.19236535
-0.0353422181
0.05936560162
-0.0645773439
57.1977109
-0.04662441896
0.06029403624
-0.0639714996
57.20173556
-0.06049906225
0.06102903575
-0.06330348913
57.20464203
-0.07745526487
0.0616894379
-0.06255785374
57.20680732
-0.09808930855
0.06223915662
-0.06176781766
57.20888745
-0.1230494253
0.06263387276
-0.06099612837
57.21177521
-0.1530064128
0.06279909436
-0.06019346536
57.21672962
-0.1885403627
0.06258776427
-0.05936004242
57.19982322
-0.2302686498
0.08759963498
-0.05848074275
57.12794654
-0.2782796176
0.1471135034
-0.05749553951
56.92514879
-0.3311490509
0.2835494917
-0.0562967186
56.7176861
-0.3868819122
0.2944995985
-0.05462411177