/*--------------------------------*- C++ -*----------------------------------*\
| =========                 |                                                 |
| \\      /  F ield         | OpenFOAM: The Open Source CFD Toolbox           |
|  \\    /   O peration     | Version:  2.2.1                                 |
|   \\  /    A nd           | Web:      www.OpenFOAM.org                      |
|    \\/     M anipulation  |                                                 |
\*---------------------------------------------------------------------------*/
FoamFile
{
    version     2.0;
    format      ascii;
    class       volVectorField;
    location    "8";
    object      U;
}
// * * * * * * * * * * * * * * * * * * * * * * * * * * * * * * * * * * * * * //

dimensions      [0 1 -1 0 0 0 0];

internalField   nonuniform List<vector> 
86889
(
(15.03496382 0.00600196403 0.004879015624)
(15.05344225 0.004763126286 0.006237441455)
(15.05654295 0.001968648642 0.006448272654)
(15.06185653 0.001679576242 0.004623510064)
(15.06913125 0.0003847302894 0.002494192378)
(15.07646591 -0.001654047793 0.0005313605193)
(15.08196309 -0.003166458317 -0.0009364467655)
(15.0865258 -0.004167731775 -0.002045321122)
(15.09089917 -0.004899452347 -0.002932932673)
(15.09497629 -0.005404606362 -0.003601335206)
(15.09884267 -0.005730416781 -0.004082601917)
(15.10245026 -0.005917316005 -0.004388026342)
(15.10600468 -0.006017137767 -0.004555903294)
(15.10946077 -0.006074020127 -0.004629202519)
(15.11285884 -0.006118832512 -0.004610599607)
(15.11625921 -0.006163035299 -0.004495589087)
(15.11969365 -0.006225044786 -0.004304537187)
(15.12311836 -0.006321774507 -0.004032081343)
(15.12650641 -0.006441309168 -0.003697528717)
(15.12988937 -0.006578370133 -0.003263588938)
(15.133105 -0.006731306024 -0.002737894105)
(15.13624866 -0.006888189056 -0.002103097002)
(15.13893274 -0.0070128972 -0.001409025442)
(15.14118862 -0.007103092411 -0.000550525881)
(15.14251745 -0.007161955355 0.0004377911659)
(15.14273852 -0.007181840403 0.001481192134)
(15.1417262 -0.007100353071 0.002841566124)
(15.13919081 -0.007115418953 0.004218106073)
(15.13497541 -0.006961381222 0.005660298176)
(15.12920656 -0.007334745348 0.007073338752)
(15.12190788 -0.007702503604 0.008264577459)
(15.11242401 -0.008270922736 0.009657194361)
(15.1005813 -0.009381275717 0.01087281781)
(15.08670369 -0.01072649198 0.01324782237)
(15.07539275 -0.01296367796 0.01558911897)
(15.07296341 -0.01255169105 0.0149884979)
(15.07882885 -0.02023606093 0.01824991002)
(15.0868258 -0.0230165975 0.01993264866)
(15.09065128 -0.02329970969 0.02073089982)
(15.09124419 -0.02387906542 0.02094791357)
(15.08753157 -0.02534252978 0.02285160116)
(15.08210862 -0.02645234564 0.02692942931)
(15.07526243 -0.02693491023 0.03196136304)
(15.06898367 -0.02720958951 0.03593216841)
(15.05882346 -0.02779469607 0.03962697571)
(15.05404973 -0.02831070064 0.04135637895)
(15.03543842 -0.02872398865 0.04438519456)
(15.05645168 -0.0350943663 0.04049745265)
(14.91942082 -0.04090911993 0.03097008595)
(15.2883457 -0.1411867281 -0.07214751082)
(15.01777515 0.007422312858 0.005852177447)
(15.02839888 0.01088514656 0.005890541045)
(15.03535271 0.0137529134 0.005862837157)
(15.04238058 0.01790796881 0.005815312157)
(15.0489308 0.02111634009 0.005138194838)
(15.05469656 0.02285503551 0.004259192458)
(15.05955803 0.0236215531 0.003595699952)
(15.06371222 0.02380914179 0.003181074683)
(15.06753273 0.02362172832 0.002903615437)
(15.07113021 0.02317500232 0.002707503559)
(15.07455058 0.02253407551 0.002595048744)
(15.07781031 0.02174264564 0.002567735785)
(15.08099675 0.02081757336 0.002612176963)
(15.08418255 0.0197791947 0.002710799917)
(15.08743682 0.01863536671 0.002861660476)
(15.09081305 0.01740228915 0.003069828893)
(15.0943549 0.01609562472 0.003322863486)
(15.09808836 0.01472000453 0.003639720598)
(15.10199918 0.01328553616 0.003990500922)
(15.10605875 0.01182255917 0.004395038336)
(15.11021179 0.01036822916 0.004854734631)
(15.11432369 0.008952376704 0.005391486819)
(15.11838359 0.007549462527 0.006057977835)
(15.12193562 0.006251675852 0.006821706088)
(15.12493339 0.004956890036 0.007784263112)
(15.12690432 0.00376955596 0.008920915096)
(15.1276948 0.002737031883 0.01023137828)
(15.12708213 0.001646906487 0.01155430538)
(15.1249508 0.0004687419063 0.0130343565)
(15.12120799 -0.000978832432 0.01420016478)
(15.11630837 -0.002959108772 0.01542599417)
(15.11035829 -0.005905154458 0.01640803938)
(15.10504243 -0.009418348107 0.01748590242)
(15.09904999 -0.01494271348 0.0179237483)
(15.09808782 -0.0196731806 0.0192848441)
(15.09079678 -0.02320063408 0.01399637718)
(15.11382982 -0.03167094927 0.01666420745)
(15.12632538 -0.0357133594 0.02046571628)
(15.13179098 -0.04042292701 0.02331304879)
(15.13225515 -0.04534540175 0.02350041354)
(15.13004297 -0.05014465496 0.02399044001)
(15.12724409 -0.05389167219 0.02686026458)
(15.12370377 -0.05678052647 0.03077720966)
(15.12026518 -0.05871250012 0.03373659992)
(15.11419288 -0.06051874993 0.03636038166)
(15.11084404 -0.06170994222 0.03820196955)
(15.09839799 -0.06314925958 0.03944279864)
(15.11344882 -0.06421990316 0.03880337861)
(15.03093107 -0.07914891801 0.03632954623)
(15.21278387 -0.05918970317 -0.03779673266)
(15.01641873 0.003324271698 0.006041797463)
(15.0226517 0.004867533013 0.007287848029)
(15.02746774 0.005895772043 0.01127985564)
(15.03395301 0.006494798926 0.008501509894)
(15.0407341 0.006793550982 0.004450165146)
(15.04678154 0.006432053831 0.00252009201)
(15.0515819 0.005998105716 0.002716833561)
(15.05632247 0.005396505324 0.003184262376)
(15.06109197 0.00463717767 0.003272361855)
(15.06582728 0.003831743469 0.003164292227)
(15.07040994 0.003003207026 0.00304079014)
(15.07483743 0.00209079614 0.002962798225)
(15.07923208 0.001032309048 0.002936291874)
(15.08363472 -0.0002148656836 0.002969865668)
(15.08811088 -0.001658841886 0.003073364192)
(15.09271267 -0.003287145378 0.003236357643)
(15.09746405 -0.005079720949 0.00344398631)
(15.10238548 -0.007011742178 0.003695145978)
(15.10750834 -0.009049197657 0.004003687023)
(15.11283151 -0.01114651116 0.004381540396)
(15.11828266 -0.01325228206 0.004839977961)
(15.1237532 -0.01530107118 0.005373549712)
(15.12910468 -0.01727038945 0.006056437103)
(15.13410597 -0.01909742473 0.006836469594)
(15.13843672 -0.020717644 0.007747875613)
(15.14186141 -0.02218755667 0.008841198359)
(15.14395363 -0.02351650414 0.01009622547)
(15.14447148 -0.02471125279 0.01132645542)
(15.14332178 -0.02604124321 0.01263926513)
(15.14038939 -0.02779590123 0.01379948807)
(15.13602577 -0.03015911289 0.01498488914)
(15.13070431 -0.0336021343 0.01567030218)
(15.12585161 -0.03781820106 0.01618753549)
(15.12124852 -0.04379160004 0.01552698548)
(15.12118612 -0.04935742247 0.01577669658)
(15.11530192 -0.05653731763 0.009973834698)
(15.13708223 -0.06243917314 0.008963092781)
(15.14913691 -0.06867262007 0.01123140628)
(15.15543398 -0.07557427808 0.01274179684)
(15.1578838 -0.08282359528 0.01263967021)
(15.15851025 -0.08939173556 0.01344562259)
(15.15899363 -0.09431646301 0.01636598114)
(15.15847285 -0.09855104984 0.02020230891)
(15.15780845 -0.1012986175 0.02283932946)
(15.15325639 -0.1047039273 0.02552681951)
(15.15495381 -0.1068461626 0.02659275427)
(15.13327529 -0.1080153012 0.0275952487)
(15.1799892 -0.1114520294 0.02456686791)
(15.05241982 -0.1247123442 0.02043602803)
(15.21967753 -0.1332849647 -0.05421114666)
(15.01613615 0.002214457165 0.00575547895)
(15.02339113 0.004361219167 0.006235345496)
(15.02844608 0.007559664763 0.01023473572)
(15.0372551 0.01013217892 0.007669553747)
(15.04389036 0.01222495126 0.006411430859)
(15.04941216 0.01317445951 0.00515544647)
(15.05485366 0.01349789878 0.004528927364)
(15.05919453 0.01344462372 0.005432185299)
(15.06347859 0.01295947133 0.006466860189)
(15.06777612 0.01212799426 0.006947732264)
(15.07195983 0.01106059898 0.007140514987)
(15.07593202 0.009808248258 0.007282605496)
(15.07984851 0.008332889629 0.007417617236)
(15.08380073 0.006627875976 0.007503358855)
(15.08790298 0.004680153842 0.007592834052)
(15.09222605 0.002453650761 0.007726420501)
(15.09682328 -5.187234573e-05 0.00790751745)
(15.10173317 -0.002806809149 0.008141771393)
(15.10696057 -0.005755223146 0.00844198855)
(15.11248343 -0.008844217992 0.008826889277)
(15.11825984 -0.01200222491 0.00929051243)
(15.12413393 -0.01510696643 0.00984623471)
(15.13011142 -0.01814713786 0.01053714127)
(15.13565976 -0.02086287593 0.01134879454)
(15.14084588 -0.02336928473 0.01234916947)
(15.14487612 -0.02542251886 0.01343595457)
(15.14776464 -0.02736379335 0.01480787731)
(15.14873085 -0.02885847443 0.01606844552)
(15.14790257 -0.03051747194 0.01745891146)
(15.14501638 -0.03259267738 0.01873731842)
(15.14033597 -0.03536244648 0.0196827113)
(15.13458958 -0.03918141636 0.02005567054)
(15.12898987 -0.04406725429 0.01948127705)
(15.12453418 -0.05039823494 0.01757286818)
(15.12278023 -0.05731836356 0.01447561026)
(15.12268153 -0.06654692031 0.008815068548)
(15.12928523 -0.07330640106 0.005307625321)
(15.13659007 -0.0811929464 0.003471244564)
(15.14188965 -0.09061711873 0.001201374865)
(15.14587868 -0.1008147994 -0.0007459510965)
(15.1493566 -0.1091128186 -0.0006687730977)
(15.15269173 -0.1156330886 0.001238231525)
(15.1548517 -0.1209428373 0.003587056383)
(15.15591699 -0.1252337893 0.005606558054)
(15.15408023 -0.1294710722 0.007455273208)
(15.15589776 -0.1334547436 0.009233241718)
(15.14106122 -0.1373726432 0.01054676501)
(15.18182551 -0.1408837802 0.007667482663)
(15.05153036 -0.1464864413 0.007994967192)
(15.21977685 -0.1472063526 -0.06397998402)
(15.01618663 0.001414137554 0.006017279789)
(15.02228859 0.002664508605 0.006207170386)
(15.02622847 0.004056223221 0.01044759672)
(15.03449365 0.004828801115 0.007794762835)
(15.03993591 0.005483319405 0.005768406306)
(15.04404786 0.005534413768 0.00468858982)
(15.04838815 0.004613867427 0.003516788038)
(15.05273156 0.003443566986 0.004068653206)
(15.05708147 0.00216313052 0.005029191723)
(15.06159776 0.0006758522331 0.005411247114)
(15.06617377 -0.001067265806 0.0054446585)
(15.07069711 -0.003073525162 0.005463610362)
(15.0751836 -0.005359285409 0.005475771903)
(15.07969388 -0.007896205215 0.005514745647)
(15.08427403 -0.01067915204 0.005564514602)
(15.08898804 -0.01372821744 0.005632060242)
(15.0939214 -0.01705204573 0.005742372369)
(15.09914814 -0.02064922425 0.005915946356)
(15.10472029 -0.02448679676 0.006164160961)
(15.11065066 -0.02849415067 0.0064951296)
(15.11692928 -0.03257427995 0.006916450168)
(15.12341707 -0.03657243363 0.007438042269)
(15.1301457 -0.04043129693 0.008096964033)
(15.1364865 -0.04380361532 0.008894610833)
(15.14267313 -0.04686036306 0.009905692248)
(15.14756714 -0.04917870048 0.01099423658)
(15.15140176 -0.05117898126 0.01243322419)
(15.15288085 -0.05254714144 0.01376666185)
(15.15233193 -0.05382495325 0.01512287394)
(15.14942027 -0.05538878136 0.01630294834)
(15.14447755 -0.05761138592 0.01708776136)
(15.13827231 -0.06083858784 0.01689978384)
(15.13210701 -0.06502859733 0.01523101681)
(15.12719611 -0.07026995619 0.01157294316)
(15.12460556 -0.07641326881 0.006566860177)
(15.12448117 -0.08377797902 -0.0001571144876)
(15.1269241 -0.09053124425 -0.006091846838)
(15.13052849 -0.09830612254 -0.01142327787)
(15.13450401 -0.1072195267 -0.01612157458)
(15.13958675 -0.1168004713 -0.01886830645)
(15.14523704 -0.1247287516 -0.0189903237)
(15.15136622 -0.1321204271 -0.01755783131)
(15.15533854 -0.1375983997 -0.01595044796)
(15.15842781 -0.1426119329 -0.01427602546)
(15.15657777 -0.147431027 -0.01249329381)
(15.16546722 -0.1514749868 -0.01073408213)
(15.14617078 -0.1581251994 -0.008523134258)
(15.18701392 -0.1593701058 -0.0118831366)
(15.05734869 -0.1642402901 -0.01001901606)
(15.22608487 -0.1665874846 -0.08093825111)
(15.01626906 0.001069760996 0.005988988652)
(15.02258406 0.00209410654 0.006005036841)
(15.0269637 0.003662017097 0.009954735845)
(15.03590308 0.004740378284 0.007211313208)
(15.04212962 0.005955359635 0.004863315061)
(15.04593019 0.006842497547 0.003487906123)
(15.04996143 0.007121507624 0.002864717086)
(15.05423957 0.006695811608 0.004015214134)
(15.05851845 0.005894019816 0.005372215142)
(15.06255719 0.004912241127 0.005939772216)
(15.0664322 0.003693193502 0.00609913729)
(15.07018809 0.002103097521 0.006174699037)
(15.07391503 6.635155178e-05 0.006247376327)
(15.07773369 -0.002447990445 0.006321009087)
(15.08171169 -0.005442096935 0.006408104169)
(15.0859086 -0.008902536399 0.006525730495)
(15.09039786 -0.01281622326 0.006681285386)
(15.0952577 -0.01715641312 0.006887192625)
(15.10056025 -0.02187130782 0.007155636315)
(15.10635405 -0.02687202522 0.007498011269)
(15.11265202 -0.03202690468 0.007928534454)
(15.11938317 -0.03715311855 0.008470597021)
(15.12645744 -0.04205963206 0.009130377749)
(15.13350608 -0.04646433285 0.009961314189)
(15.14036383 -0.05026726166 0.01097406119)
(15.14616642 -0.05311754235 0.01215312197)
(15.15070362 -0.0552127465 0.01366522337)
(15.15278464 -0.05643452192 0.01516427932)
(15.15196367 -0.05714595049 0.01650380965)
(15.1491017 -0.05803504444 0.01766104628)
(15.14418563 -0.05944269392 0.01813594776)
(15.13671322 -0.06170847028 0.01729582639)
(15.12960773 -0.06453848429 0.01448146077)
(15.12375374 -0.06842706763 0.008848933974)
(15.1202646 -0.07349977655 0.001243460495)
(15.11908615 -0.08004800457 -0.006978619375)
(15.1198763 -0.08754790374 -0.01494112689)
(15.12180243 -0.09607789554 -0.02290432966)
(15.12469955 -0.1052291372 -0.02978054946)
(15.13011387 -0.1150999759 -0.03444805914)
(15.13624174 -0.1237760273 -0.03558005438)
(15.14442048 -0.1329645493 -0.03486225519)
(15.15046591 -0.1397788497 -0.03397835167)
(15.15484197 -0.1453114893 -0.03302005112)
(15.15495266 -0.1540554361 -0.03062847902)
(15.1621762 -0.1582706727 -0.02882866947)
(15.14462943 -0.1638078914 -0.02596806619)
(15.1864941 -0.1651569189 -0.029014531)
(15.05862033 -0.1701491112 -0.02406045796)
(15.23032402 -0.1717672898 -0.09456843096)
(15.01623646 0.0006463811884 0.006041835378)
(15.0221463 0.001225642977 0.006002347416)
(15.02563637 0.001907352364 0.01004434951)
(15.03443987 0.002203060539 0.007162107771)
(15.03935724 0.002254985925 0.00458616923)
(15.04316306 0.002134466361 0.002327442093)
(15.04547831 0.00178457937 0.001287122158)
(15.04892019 0.0006060074194 0.002572316242)
(15.05282266 -0.001197198322 0.004303965619)
(15.0569977 -0.003292112079 0.00507458159)
(15.06112025 -0.005624081841 0.005268488027)
(15.06496108 -0.008194124288 0.005356449741)
(15.06868337 -0.01110875854 0.005428848544)
(15.07241553 -0.01443921945 0.005483897004)
(15.07624587 -0.01824151161 0.005546039247)
(15.08025208 -0.0225509578 0.005636451276)
(15.0845322 -0.02738587012 0.005762909154)
(15.08919788 -0.03273882236 0.005936273999)
(15.09436159 -0.03856458179 0.006165602498)
(15.10011946 -0.04476963627 0.006461198703)
(15.10653382 -0.05119594313 0.006839234046)
(15.11361677 -0.05762557514 0.007329056861)
(15.12123944 -0.0637467376 0.007943099212)
(15.12920952 -0.06928126108 0.008737222671)
(15.13717895 -0.07388631412 0.009745183282)
(15.14428819 -0.07717175293 0.01097553641)
(15.15009651 -0.07913964175 0.01245178931)
(15.15328085 -0.07966464618 0.01421448354)
(15.15354721 -0.079452367 0.01539095107)
(15.15043494 -0.07908745656 0.01634558653)
(15.14443563 -0.0787838285 0.01655506101)
(15.1366285 -0.07911279693 0.01498537391)
(15.12869019 -0.07999036714 0.01083217878)
(15.1218735 -0.08143737145 0.002885015822)
(15.11691987 -0.08323882093 -0.007392021509)
(15.11375769 -0.08557919113 -0.01868963206)
(15.11261484 -0.08854710941 -0.02831685908)
(15.11324452 -0.09339031176 -0.03756727813)
(15.11566754 -0.1002589137 -0.04589355081)
(15.1218813 -0.1093770986 -0.05214749402)
(15.12787176 -0.1174931484 -0.05375840548)
(15.1389494 -0.1283163976 -0.05306193546)
(15.1453137 -0.1355105419 -0.05230491191)
(15.15266035 -0.1415915791 -0.05175525373)
(15.15265493 -0.1518323655 -0.04862521467)
(15.16070142 -0.1553916206 -0.0468123205)
(15.14522645 -0.1604484595 -0.04342604295)
(15.18791563 -0.161527885 -0.04654812932)
(15.06166776 -0.1650936737 -0.03936960655)
(15.23592538 -0.1660508548 -0.1096604998)
(15.01629873 0.0004501294487 0.006026036945)
(15.02221057 0.0008921424301 0.005948336141)
(15.02617808 0.001497717414 0.009869332548)
(15.03464157 0.001865385834 0.007039396297)
(15.04043385 0.002149199752 0.004166416431)
(15.04378679 0.002314218514 0.001831341286)
(15.0469356 0.002309666885 0.000427505863)
(15.04910355 0.002040059011 0.00155020277)
(15.05268872 0.001216018357 0.003569557465)
(15.05638501 -0.0001815519671 0.004724986541)
(15.05987583 -0.002016730549 0.005117724976)
(15.06312182 -0.00429265121 0.005296666084)
(15.06619689 -0.007069310195 0.005431611924)
(15.06923834 -0.01042981285 0.00554097944)
(15.07235666 -0.01443659042 0.005648998322)
(15.07565022 -0.01913244851 0.005770852627)
(15.07923557 -0.02454619406 0.005917275963)
(15.08325467 -0.03068269721 0.006093298354)
(15.08786576 -0.03750443789 0.006313623724)
(15.09323215 -0.04490981561 0.006585153944)
(15.09948544 -0.05271352351 0.006926967948)
(15.10673592 -0.06063359137 0.007357740373)
(15.11484305 -0.06822310389 0.007897957057)
(15.12397221 -0.07528029625 0.008641154382)
(15.13290893 -0.0807703639 0.009571268016)
(15.14208706 -0.08479561327 0.01085172204)
(15.14912821 -0.08649676314 0.01235465326)
(15.15430287 -0.08636147182 0.01373477099)
(15.15523921 -0.08440175752 0.01548191045)
(15.15229624 -0.08236283727 0.0164391759)
(15.14551912 -0.07938641258 0.01656041145)
(15.13724141 -0.0772421055 0.01440141874)
(15.12868862 -0.0758450579 0.008782086822)
(15.12213471 -0.07507462253 -0.001194950283)
(15.11798581 -0.07508696707 -0.01375882421)
(15.11548493 -0.07594624857 -0.02773840864)
(15.11322185 -0.07782188112 -0.03946452796)
(15.11067013 -0.08176920436 -0.05054599138)
(15.10993204 -0.08805080233 -0.06023777905)
(15.11404286 -0.09654840707 -0.06714934428)
(15.11982364 -0.1050838366 -0.06890856417)
(15.1306191 -0.1162495482 -0.06797817698)
(15.13798768 -0.124904384 -0.06674818167)
(15.14632424 -0.1313734723 -0.06609314884)
(15.14843414 -0.1425617491 -0.06244851569)
(15.15688212 -0.1471181527 -0.06027160492)
(15.14469239 -0.1535103712 -0.05575385319)
(15.18918238 -0.1555793512 -0.05838677164)
(15.06447058 -0.1606959553 -0.04859996849)
(15.24073413 -0.162421494 -0.1184380452)
(15.01631682 0.0002075297205 0.006047961599)
(15.02189922 0.0004065667719 0.005954535356)
(15.02572163 0.0005524121556 0.009923691216)
(15.03341592 0.0004901883689 0.007129022737)
(15.03899587 0.0001112330268 0.004049307097)
(15.04157537 -0.000384172422 0.001683100944)
(15.04459101 -0.001411940414 -6.404365145e-05)
(15.04614687 -0.002342675425 0.0009686941573)
(15.04899034 -0.003817181765 0.002967009016)
(15.05238409 -0.005848785262 0.004250626588)
(15.05567508 -0.00838975986 0.004808263001)
(15.05866646 -0.0113254738 0.005026889729)
(15.06137428 -0.01474189799 0.005152375301)
(15.06394725 -0.01875922983 0.005253173157)
(15.06651837 -0.02347219596 0.005354632437)
(15.06920121 -0.02895948983 0.005460818542)
(15.07213155 -0.03528857735 0.005580338839)
(15.07548768 -0.04250009385 0.005710590664)
(15.07948947 -0.05059216197 0.005861638809)
(15.08437372 -0.05947226573 0.006029105942)
(15.09041739 -0.06895929272 0.006241820797)
(15.09775213 -0.07874466801 0.006516561966)
(15.10678086 -0.08829352802 0.006882334638)
(15.11712275 -0.09698288291 0.00741717734)
(15.12764648 -0.1039697921 0.008168544367)
(15.13963355 -0.108863022 0.009385172432)
(15.14816375 -0.1102516839 0.01073414274)
(15.15672531 -0.1089860284 0.0123012634)
(15.15903504 -0.1049639587 0.01416341742)
(15.15653459 -0.1007135883 0.01543167515)
(15.14973425 -0.09530071272 0.01550562567)
(15.14169317 -0.09137496722 0.0130482071)
(15.13173169 -0.08739322985 0.005652224789)
(15.12329425 -0.08260430758 -0.007294184338)
(15.11683717 -0.07685841566 -0.02411989169)
(15.11178845 -0.07011955024 -0.04327552349)
(15.10748282 -0.06415819294 -0.0596963553)
(15.10371155 -0.0625996882 -0.07335685727)
(15.1023608 -0.06617282395 -0.08428121215)
(15.10588987 -0.07330012301 -0.09161729184)
(15.11220257 -0.08246709005 -0.093528865)
(15.12300389 -0.09449541299 -0.09228505932)
(15.13249036 -0.1049160908 -0.09112323311)
(15.14039444 -0.1126401293 -0.09035905246)
(15.14502259 -0.125049121 -0.08662248613)
(15.15350272 -0.1299939975 -0.08465553965)
(15.14306505 -0.1351366791 -0.07997210595)
(15.18824316 -0.1364082441 -0.08294208333)
(15.06607935 -0.1398284988 -0.0697321245)
(15.24676341 -0.1406518876 -0.1389603664)
(15.01632442 0.0001003992979 0.006034343579)
(15.02195237 0.0002244728483 0.005935890863)
(15.02579973 0.0003551018493 0.009877278449)
(15.03355789 0.0003718182996 0.007053344619)
(15.03909876 0.000231074856 0.003929615349)
(15.04161501 -1.390547139e-05 0.001480006223)
(15.04445898 -0.000648709702 -0.0004126213809)
(15.04585817 -0.001298406984 0.0005092037795)
(15.04813698 -0.002456804883 0.002518537777)
(15.05092649 -0.003932264231 0.003845414822)
(15.05368316 -0.006054006951 0.004593715385)
(15.05611653 -0.008716973317 0.004920677974)
(15.0581518 -0.01198456243 0.005085843963)
(15.05993802 -0.01597424905 0.005212029618)
(15.06162948 -0.02080141532 0.005332145343)
(15.06335407 -0.02657582781 0.005441791055)
(15.06526687 -0.03340156131 0.005540350404)
(15.06757693 -0.04135784584 0.005617995176)
(15.07059705 -0.05048407987 0.0056768279)
(15.07458116 -0.06074617221 0.005706676117)
(15.0802841 -0.07198227399 0.005717480353)
(15.08764837 -0.0838727279 0.005727839758)
(15.09717293 -0.0956924622 0.005825138595)
(15.10910863 -0.1064541515 0.006084902157)
(15.12200094 -0.1151835606 0.006680950898)
(15.1359279 -0.120818774 0.007664970702)
(15.14943448 -0.122073732 0.009181166548)
(15.15943562 -0.1190111065 0.01094407873)
(15.16494186 -0.1119391699 0.01300401477)
(15.16246391 -0.1031313882 0.01471226256)
(15.15586169 -0.09355319541 0.01514201938)
(15.14638103 -0.08610548026 0.0121923973)
(15.13856476 -0.08157083847 0.005223927078)
(15.133679 -0.07853370276 -0.006945403767)
(15.13159832 -0.07569622123 -0.02191314611)
(15.12940755 -0.070537121 -0.03788656576)
(15.12233916 -0.06247731484 -0.05495206688)
(15.11092313 -0.05511080117 -0.07192407835)
(15.09998163 -0.0519834136 -0.09024985267)
(15.09914845 -0.05508118404 -0.0989081386)
(15.1031607 -0.0620303297 -0.1016562801)
(15.11238119 -0.07241425613 -0.1015704445)
(15.12235468 -0.08305775601 -0.1011073604)
(15.1301781 -0.09272717905 -0.09960904491)
(15.14069502 -0.1026196095 -0.09684345041)
(15.14926278 -0.1119886027 -0.09222985158)
(15.14397982 -0.1180480849 -0.08707034284)
(15.19130836 -0.1220754243 -0.08861244025)
(15.07017209 -0.1263309721 -0.0727829222)
(15.25106343 -0.1277877993 -0.1414068997)
(15.01632189 -5.207598147e-05 0.0060429826)
(15.02178576 -6.67975328e-05 0.005936761316)
(15.02553414 -0.00025825226 0.009907489887)
(15.03292974 -0.0005030229126 0.007100021998)
(15.03829763 -0.001058768326 0.003908575846)
(15.04039368 -0.001614044375 0.001487000706)
(15.04298991 -0.002778694506 -0.0004948188428)
(15.04394932 -0.003710513086 0.0003838929174)
(15.0458248 -0.00533648208 0.002368786065)
(15.04817082 -0.007081001711 0.003694928446)
(15.05043411 -0.009470700472 0.004473180377)
(15.05232871 -0.01243558059 0.004820484941)
(15.05373353 -0.01603329297 0.004978804581)
(15.05476706 -0.02038279346 0.005091038603)
(15.05557385 -0.025626626 0.005187920301)
(15.05628053 -0.03191751311 0.005259473608)
(15.05705748 -0.03941445688 0.005289250972)
(15.05812998 -0.04825400391 0.00525407746)
(15.05991767 -0.05855795595 0.005134905612)
(15.06285184 -0.07044201137 0.004905885917)
(15.06776858 -0.08375067542 0.004595267687)
(15.07488639 -0.09807015842 0.004197540763)
(15.08435184 -0.1126650392 0.003810183564)
(15.09799469 -0.1262241872 0.003457720816)
(15.1142479 -0.1372546693 0.003416242865)
(15.13210762 -0.1443175643 0.003976289985)
(15.15054932 -0.1461411935 0.005420576956)
(15.16577406 -0.1417502902 0.00781049451)
(15.1747366 -0.1332013454 0.01058813544)
(15.173975 -0.1221145235 0.01310836668)
(15.16746365 -0.1109389402 0.01422340018)
(15.15468887 -0.09973480174 0.01197358306)
(15.14107868 -0.08932449501 0.005118462671)
(15.13100948 -0.07694718227 -0.007631439796)
(15.12622677 -0.06137060881 -0.02436136122)
(15.12619324 -0.04000843321 -0.04167625968)
(15.12328412 -0.01874731676 -0.06264342957)
(15.11514008 -0.01008857123 -0.08125060113)
(15.10366901 -0.01000857092 -0.1011391572)
(15.09720863 -0.01710204985 -0.1144431925)
(15.09837035 -0.02663321287 -0.1193231204)
(15.10525392 -0.03977268265 -0.1211623101)
(15.11348448 -0.05319507679 -0.121480005)
(15.12254094 -0.06633461874 -0.1203603277)
(15.13138606 -0.07563373763 -0.1193174142)
(15.14173569 -0.08585950329 -0.1155973426)
(15.13639199 -0.09116437742 -0.1112260752)
(15.18380412 -0.09542681204 -0.1128081822)
(15.06819215 -0.09589896753 -0.09491492653)
(15.25404579 -0.09593849978 -0.1627721731)
(15.01634156 -6.747719491e-05 0.006039066959)
(15.02176203 -8.436080542e-05 0.00592816397)
(15.02554856 -0.0002214108947 0.009891353137)
(15.03276166 -0.0003882441842 0.007094666982)
(15.03814105 -0.0007864114684 0.003831710961)
(15.03996974 -0.001180420755 0.001432689592)
(15.04250088 -0.002126837218 -0.0006279329598)
(15.04307962 -0.002838459553 0.0002483247608)
(15.04466202 -0.004221248636 0.002250964118)
(15.04653953 -0.005669011768 0.003541831426)
(15.04826698 -0.007750252973 0.004342993494)
(15.04953804 -0.01042691401 0.004723051279)
(15.05020057 -0.01377681811 0.004896757401)
(15.05034431 -0.01793292428 0.005013282628)
(15.05009802 -0.02306256872 0.005090598742)
(15.049568 -0.02935717421 0.00512720532)
(15.04895711 -0.03702820512 0.005058948798)
(15.04838642 -0.04628475546 0.004888147098)
(15.04872727 -0.05744244584 0.004499067763)
(15.05015302 -0.07065660612 0.003955238593)
(15.05339548 -0.08580930232 0.003178716958)
(15.05969335 -0.102447389 0.002200452012)
(15.06955498 -0.1199707031 0.0009736868535)
(15.08444445 -0.1369555352 -0.0002476296953)
(15.10518534 -0.1509300208 -0.001405048453)
(15.12849785 -0.1591209449 -0.001533570613)
(15.15188627 -0.1589814459 -0.0001863799357)
(15.17219941 -0.1498273297 0.002841630263)
(15.18406997 -0.1324808328 0.007208006037)
(15.18484783 -0.1149902588 0.01066016877)
(15.1778629 -0.09850945148 0.01235385032)
(15.16870173 -0.08833253355 0.01096105754)
(15.16299262 -0.08263935885 0.004051026315)
(15.16518959 -0.08012508881 -0.004876189133)
(15.17265073 -0.07732329603 -0.01274101457)
(15.17084088 -0.06031792306 -0.01478996597)
(15.14753466 -0.03096079026 -0.0282931706)
(15.11445681 -0.001862969638 -0.05000806204)
(15.09055993 0.01592160963 -0.07619621639)
(15.07899984 0.01693016124 -0.09177490995)
(15.07850717 0.01041485081 -0.09751764136)
(15.08364631 -0.001244216936 -0.1002570995)
(15.09293426 -0.0143628333 -0.1011438594)
(15.1050443 -0.02817140088 -0.1000773014)
(15.11629746 -0.03892239781 -0.0978786759)
(15.13368986 -0.05188734062 -0.09207882638)
(15.13028195 -0.05909510814 -0.08618846684)
(15.17989943 -0.06403290631 -0.08647005357)
(15.06564523 -0.06534875828 -0.06953700855)
(15.24746846 -0.0659506302 -0.1386546911)
(15.01634368 -0.000150919642 0.00604430943)
(15.02166376 -0.0002406386357 0.005927203507)
(15.02543112 -0.0005132348596 0.009904901819)
(15.03237229 -0.0007736353143 0.007132536194)
(15.037691 -0.001315167886 0.00380400802)
(15.03916804 -0.001783090349 0.001455761922)
(15.04156063 -0.002908552761 -0.0006724088167)
(15.04171996 -0.003609934931 0.0001982435796)
(15.04298083 -0.005096625272 0.002238314081)
(15.04443953 -0.00656217083 0.003498408876)
(15.04565684 -0.008639429451 0.004306778455)
(15.04632707 -0.01128177894 0.004679373303)
(15.04626594 -0.01457232814 0.004847740681)
(15.04552535 -0.01865453741 0.004942722432)
(15.04419853 -0.02371043211 0.004988623553)
(15.04237664 -0.02997612759 0.004942059959)
(15.04018131 -0.03768307524 0.004767750998)
(15.03788478 -0.04718341306 0.004356499954)
(15.03639607 -0.05896033515 0.003678176645)
(15.03537434 -0.07319084567 0.002651179487)
(15.03663976 -0.08985678905 0.001213757009)
(15.04110912 -0.1088193813 -0.0008478677447)
(15.05165314 -0.1295289711 -0.003507658673)
(15.06781214 -0.1506589224 -0.006599454953)
(15.0927142 -0.1695926191 -0.009469525655)
(15.12610833 -0.18260291 -0.01124005316)
(15.1617689 -0.1867578644 -0.01014581253)
(15.19429155 -0.1782054783 -0.004529231988)
(15.21085155 -0.1603286993 0.002952008498)
(15.20920825 -0.1394675494 0.008951504556)
(15.19395713 -0.1187279116 0.0119403379)
(15.16856777 -0.09838003286 0.01024044041)
(15.15225653 -0.08372864642 0.004335106387)
(15.13473892 -0.0653255496 -0.01238630632)
(15.15859536 -0.06179508805 -0.01915168035)
(15.16860194 -0.002884133763 -0.02607548922)
(15.17954129 0.02927271529 -0.02759619156)
(15.15180457 0.03334757453 -0.04069850011)
(15.11611707 0.03657633009 -0.06580923835)
(15.09055165 0.03285971153 -0.09167745761)
(15.08049376 0.02083276622 -0.1068472855)
(15.08151384 0.004324202704 -0.1161941283)
(15.08869589 -0.01155117017 -0.1220005085)
(15.10005402 -0.02680027439 -0.1252331543)
(15.11137992 -0.03724454333 -0.1271353424)
(15.12700965 -0.05045714342 -0.1240931568)
(15.12721512 -0.05509257865 -0.1213201332)
(15.17806774 -0.06113033631 -0.1206552125)
(15.0714024 -0.05846331001 -0.1036896121)
(15.25931789 -0.05832272825 -0.1704147997)
(15.01634325 -0.0001330134824 0.006040098266)
(15.02165467 -0.0002054755586 0.005922543321)
(15.02533518 -0.0003988588136 0.009907625668)
(15.03229038 -0.0005977555184 0.007106652676)
(15.03740345 -0.0009894911844 0.003794195346)
(15.03883377 -0.001353985648 0.001397272281)
(15.04095735 -0.002226053294 -0.0007214747468)
(15.0409029 -0.002750709906 0.0001484170112)
(15.04189786 -0.003974310539 0.002225378033)
(15.04296393 -0.005144047487 0.003446080888)
(15.0437217 -0.00685792112 0.004243530628)
(15.04382925 -0.009080357931 0.00462176621)
(15.0430649 -0.01190036172 0.004790013412)
(15.04145078 -0.015466392 0.004869661607)
(15.03901576 -0.01996697566 0.004875504588)
(15.03588418 -0.02566343242 0.004758243983)
(15.03186537 -0.03282520519 0.004431346328)
(15.02800751 -0.041868611 0.003775757859)