/*--------------------------------*- C++ -*----------------------------------*\
| =========                 |                                                 |
| \\      /  F ield         | OpenFOAM: The Open Source CFD Toolbox           |
|  \\    /   O peration     | Version:  2.2.1                                 |
|   \\  /    A nd           | Web:      www.OpenFOAM.org                      |
|    \\/     M anipulation  |                                                 |
\*---------------------------------------------------------------------------*/
FoamFile
{
    version     2.0;
    format      ascii;
    class       volScalarField;
    location    "6";
    object      epsilon;
}
// * * * * * * * * * * * * * * * * * * * * * * * * * * * * * * * * * * * * * //

dimensions      [0 2 -3 0 0 0 0];

internalField   nonuniform List<scalar> 
86889
(
0.1173506071
0.04959755561
0.02658846698
0.01742949217
0.01356866949
0.01219101782
0.01217720096
0.01298002948
0.01427899687
0.01586653728
0.01759881862
0.01937491417
0.02112343898
0.02279463452
0.02436229196
0.0258140456
0.02714502571
0.02835169241
0.02944260397
0.03042974486
0.031326784
0.03214997484
0.03290860807
0.03360860766
0.03427098723
0.03491742733
0.03554608977
0.03617599656
0.03680502254
0.03750409469
0.03853305745
0.04030309838
0.0431191384
0.04610033982
0.04623942733
0.04525594581
0.04449727805
0.0439396318
0.04364169663
0.04366806502
0.04432374433
0.04527734229
0.04641908122
0.04769819373
0.04910708498
0.05058283253
0.05222425626
0.05339129499
0.05666449319
0.1428107632
0.1106576676
0.0502576191
0.02634592847
0.01615437044
0.01146881109
0.00933268739
0.008545920724
0.008557067877
0.00907324803
0.009913937064
0.01095585864
0.0121093396
0.01330845376
0.01450611842
0.0156701104
0.01677803983
0.01781597711
0.01877529257
0.01965745696
0.02046361116
0.02120092832
0.02187300136
0.02248542931
0.02304823056
0.02357208731
0.02407121477
0.0245383132
0.02500130774
0.0254304696
0.02585300121
0.02625961712
0.02666910774
0.02710598155
0.02749763147
0.0275400727
0.02663538753
0.02567285147
0.02487167862
0.02431512659
0.02402056744
0.02451584999
0.02523675491
0.02607263395
0.02701431575
0.02807554808
0.02921790678
0.03052275872
0.03128045926
0.03352515459
0.1023117509
0.1096058321
0.05157716219
0.02582588973
0.01520390904
0.01009821493
0.007672924637
0.006779544938
0.006709866411
0.00710374623
0.007773615224
0.008608736578
0.009535687243
0.01050273054
0.01147309593
0.01242118909
0.01333030382
0.01419067387
0.01499671178
0.01574570992
0.01643754073
0.01707768559
0.01767299316
0.01822590032
0.0187404441
0.01922483566
0.01968686401
0.02013051545
0.02055857336
0.02097459001
0.02137359368
0.02175944646
0.0221191009
0.02246369791
0.02272664506
0.02274499631
0.02208256024
0.02132575981
0.02072384453
0.02033258236
0.0201673597
0.0205331615
0.02114011669
0.02188593533
0.02274095943
0.02372855266
0.02478025309
0.02608453746
0.0269616713
0.02788556575
0.09532330452
0.1094092074
0.05122825117
0.02488416398
0.01446338223
0.009477936289
0.006946278439
0.005886181284
0.005694013628
0.005979269668
0.006541706629
0.007273288244
0.008107262201
0.008995969757
0.009902693874
0.01080223505
0.01167718728
0.01251485832
0.01330751935
0.01405297319
0.01475060264
0.01540120311
0.01600887358
0.01657661533
0.01710921723
0.01761181175
0.01808925483
0.01854794629
0.01898877855
0.01941623861
0.01982518364
0.02020938878
0.02055620412
0.02085439982
0.02102459028
0.02075788784
0.02013837277
0.01954484045
0.01910430803
0.01884477063
0.0187569491
0.01906635496
0.01949926821
0.02003211956
0.02066879134
0.02143056377
0.02226540654
0.02337552131
0.02434591646
0.02572158023
0.0944710625
0.10940454
0.05114040161
0.02478990605
0.01429765825
0.009258501909
0.006725951793
0.005556887163
0.005258294233
0.005433543813
0.005882188294
0.006498730144
0.00722228776
0.008008379509
0.00882454475
0.009645824556
0.01045399473
0.01123672233
0.01198577295
0.01269661314
0.0133667812
0.01399585661
0.0145872853
0.01514351067
0.01566730274
0.01616514159
0.01664102838
0.01710087907
0.01754133188
0.01797110685
0.01837871905
0.01875198423
0.01908460208
0.01936599569
0.01954919041
0.01950184251
0.0189918187
0.01857515122
0.01827973389
0.01812338327
0.01815089978
0.01837592854
0.01869510483
0.01911209851
0.01963721072
0.02030910582
0.02106939975
0.02215582003
0.02330891125
0.02471972621
0.09424025967
0.1094039668
0.05111853313
0.02477079612
0.01427256058
0.009164428599
0.006608727038
0.005409487852
0.005073599537
0.005208125182
0.005615202413
0.006190514794
0.006873564272
0.007622041001
0.008403659623
0.009194063378
0.009975628931
0.01073571988
0.0114654783
0.01215994352
0.01281630766
0.01343361035
0.01401391719
0.01456093643
0.01507709293
0.01556810635
0.01603739657
0.01648927087
0.01692894655
0.01734834154
0.01774355326
0.01811275777
0.01844193615
0.01871880638
0.01892476745
0.01900577919
0.0188556478
0.01840269194
0.01806610265
0.017906242
0.01784497662
0.01786370235
0.01802489356
0.01840114831
0.01891117148
0.0195479086
0.02033261547
0.02133298325
0.02259295527
0.02394623651
0.09368074248
0.1094033267
0.05111352383
0.02476630572
0.01426555309
0.009154765742
0.006573254238
0.005347080343
0.004992478424
0.005101961383
0.005481393719
0.006027712947
0.00668130771
0.007400271406
0.008152717669
0.008914778052
0.009669015594
0.01040310353
0.01110811776
0.01177917969
0.0124135518
0.01301012294
0.01357031131
0.014097548
0.01459545378
0.01506855961
0.01552115523
0.01596055298
0.01639008751
0.01680672365
0.01720343148
0.01757690619
0.01791536785
0.01819857274
0.01840813222
0.01853241533
0.01852738096
0.01836854874
0.0181514995
0.01789974508
0.0177133687
0.01765036154
0.01772154896
0.01805027201
0.01856297072
0.0192195748
0.02003641734
0.02102912383
0.02231790879
0.02352336332
0.09321043112
0.1094026819
0.05111241467
0.02476553246
0.01426423385
0.00915281398
0.006570731853
0.0053223178
0.004950509913
0.005047893674
0.005414629314
0.005947646799
0.006587989493
0.007294100073
0.008034094191
0.008784306479
0.009527105766
0.01025015316
0.01094449049
0.01160472099
0.01222817829
0.0128136633
0.0133622999
0.01387861544
0.01436408236
0.01482428842
0.01526597425
0.01569772406
0.01612494868
0.01655926173
0.01697787976
0.01737484102
0.01772881186
0.01801611454
0.01822344601
0.01835078978
0.01837714369
0.01829909953
0.01813137849
0.01784749007
0.01765635973
0.01758274492
0.01764105784
0.01793189254
0.01844249221
0.01910062853
0.01992297496
0.02092116064
0.02221440942
0.02334439833
0.09293348604
0.1094020169
0.05111167581
0.02476484274
0.01426342069
0.009151854535
0.006569647479
0.00532023913
0.004935863134
0.005019414304
0.005376368875
0.005898393816
0.006526962547
0.00722092929
0.007948459972
0.008686083075
0.009416266344
0.01012635235
0.01080770045
0.01145414312
0.01206320165
0.01263311125
0.01316502291
0.01366498732
0.01413510933
0.01458181069
0.01500943314
0.01542995636
0.01585920316
0.01629718717
0.01672563728
0.01713444116
0.01750097542
0.01779183206
0.01799780872
0.01812751019
0.01814484327
0.01803806007
0.01783762504
0.0175473171
0.01742349714
0.01738920219
0.01747110411
0.01780035867
0.01831752147
0.01898372501
0.01981397072
0.02081670793
0.02211133989
0.02296451365
0.09232339373
0.1094013539
0.05111119656
0.02476455938
0.0142632266
0.009151691171
0.00656946734
0.005318813281
0.004933280998
0.00500414572
0.00535683205
0.00587434741
0.006498563301
0.007188471223
0.007911918259
0.008645418746
0.009371406412
0.01007653763
0.01075255085
0.01139200088
0.01199310081
0.01255499101
0.01307855729
0.01357043492
0.01403260634
0.01446841978
0.01488567779
0.01530050046
0.01572469969
0.01616120295
0.01659678737
0.0170109362
0.01737187054
0.01765768577
0.01784679959
0.0179369465
0.0179515924
0.01789680856
0.01773131482
0.01745536482
0.01733885492
0.01731401648
0.01745633531
0.01781137259
0.0183054627
0.01897800841
0.01980696713
0.02080848528
0.02210305295
0.02297516239
0.0923005167
0.1094006919
0.05111065016
0.02476411133
0.01426283004
0.009151308983
0.006569091393
0.005318139321
0.004932403425
0.005003377408
0.005355788684
0.005872548281
0.006495634298
0.007184115157
0.007905612817
0.008636720895
0.009359378656
0.01006011422
0.01073028772
0.01136253364
0.01195592229
0.01250965728
0.01302184002
0.01349583987
0.01393449049
0.01434186616
0.01472807147
0.01511880376
0.01552876403
0.01596996898
0.01641931284
0.01685847504
0.01724415425
0.01755442538
0.01774914648
0.01780868225
0.01775167449
0.01757940592
0.01735388152
0.01713895724
0.01707771883
0.01715063684
0.01739622296
0.01778407709
0.01829984427
0.01898811817
0.01981452613
0.02081001604
0.02209401719
0.02258303866
0.09162874328
0.1094001037
0.05111021839
0.0247638333
0.01426262272
0.009151126034
0.006568911941
0.005317278657
0.004931005357
0.005001816377
0.005354053814
0.005870266122
0.006493313393
0.007181644614
0.007903080148
0.008633192514
0.009354413486
0.01005216381
0.01071807739
0.01134543461
0.01193372903
0.01247526255
0.01297046965
0.01341114703
0.01380690641
0.01415915285
0.0144976895
0.01484201919
0.01523356786
0.015685892
0.01615646619
0.01661539618
0.01701261707
0.01730523375
0.01754611393
0.01774823775
0.01805100033
0.01820365914
0.01809784191
0.017952516
0.01770515503
0.01766656244
0.01780663053
0.01812008695
0.01858838028
0.01923500993
0.02003294155
0.02101462304
0.02229694824
0.02324433642
0.09268329388
0.1093995442
0.05110981442
0.02476353653
0.01426237439
0.009150892844
0.006568682899
0.005316814586
0.004930296965
0.005001278013
0.005353353251
0.005869436359
0.006491668167
0.007179243546
0.007899372809
0.008627554441
0.009345211694
0.01003911898
0.01069921988
0.01132111803
0.0118952147
0.01241542043
0.01287036126
0.01325901865
0.01356405961
0.01380899563
0.01401544095
0.0142603059
0.01461630316
0.01512942779
0.01572643419
0.01632840203
0.01684390944
0.01723895249
0.01735490306
0.01737446594
0.01653494531
0.0160389985
0.01582686837
0.01569076905
0.01585040915
0.01615326271
0.01656521473
0.0170835941
0.01770245868
0.01848571574
0.01938867
0.02045103327
0.02178468591
0.02207862275
0.09099175378
0.1093990742
0.0511094412
0.02476327835
0.01426217619
0.009150726656
0.006568520401
0.005316312506
0.004929585584
0.005000649332
0.005352478564
0.005868194789
0.006490201479
0.007177109583
0.007896375423
0.00862327142
0.009338578962
0.01002823462
0.01068553643
0.01129918862
0.01185907399
0.01234705014
0.01274895613
0.01304290914
0.01320735141
0.01323848932
0.0132453503
0.0133241305
0.0135149375
0.01398528344
0.01459936894
0.01528721819
0.01585184118
0.01633011962
0.01658345473
0.01708989157
0.01835756342
0.01842986859
0.01739600308
0.01688461329
0.01682938513
0.01697141649
0.01719653641
0.01753686849
0.01808841553
0.01881473425
0.01967782728
0.0207066233
0.02200757278
0.02250042152
0.09136707437
0.1093986762
0.05110911446
0.02476303265
0.01426197622
0.00915055324
0.006568353015
0.005315994486
0.004929247342
0.005000553872
0.00535226708
0.00586771672
0.006489246936
0.007175487204
0.007893740711
0.008618890283
0.009330604224
0.01001548959
0.01066379054
0.01126625595
0.01180672111
0.01225491945
0.01257991253
0.01273101323
0.01271774182
0.01277760329
0.01290127786
0.01308070283
0.01320762279
0.01389181097
0.01469517302
0.01567115298
0.01652963601
0.01705435924
0.01732409486
0.01739713554
0.01939957677
0.02227717933
0.02511511676
0.0257990707
0.02595927815
0.02558818784
0.02506287469
0.02454795265
0.02411205188
0.02388487952
0.02382052933
0.02408443471
0.02474511582
0.02613074165
0.09487358672
0.1093983896
0.05110888653
0.02476287133
0.01426185307
0.009150456808
0.006568257287
0.005315741526
0.004929019354
0.005000435366
0.005352246036
0.005867431532
0.006488632221
0.007174430666
0.007891940511
0.008615758972
0.00932492656
0.01000498328
0.01064447308
0.01123207512
0.01174843825
0.01214977741
0.01238157774
0.0123707994
0.0124322496
0.01256826018
0.01279294896
0.01314994753
0.01274190824
0.01314012242
0.01264732201
0.01326258887
0.01432565321
0.01531439412
0.01562924708
0.01619677628
0.01757905854
0.01814190672
0.01810846794
0.0190572167
0.01966584325
0.01975720405
0.01957840021
0.01954573494
0.01961219176
0.0201200772
0.02079910564
0.02168029823
0.02287027641
0.02394821591
0.09326781436
0.1093982069
0.05110873791
0.02476276045
0.01426176461
0.009150382086
0.006568186302
0.005315609166
0.004928988614
0.005000488867
0.005352862278
0.005868004106
0.00648892203
0.007174298084
0.007891129799
0.008613836511
0.009320854566
0.009997568589
0.01063004584
0.01120323917
0.01170225153
0.01206195593
0.01221918848
0.01220289362
0.01230995848
0.01257338317
0.0129955474
0.01348992995
0.01372113388
0.01422256317
0.01377159541
0.01483674574
0.0173191179
0.01988952203
0.02030314237
0.02002475765
0.01936499888
0.01850070671
0.01860912645
0.01983282978
0.02095652418
0.02153733241
0.02162894611
0.02125883642
0.02089228725
0.02115159633
0.02163463996
0.02235177134
0.02340316636
0.02404051727
0.09301076402
0.1093981459
0.05110869582
0.02476273234
0.01426174369
0.009150365929
0.006568171144
0.005315565674
0.004928962137
0.00500042328
0.005353079496
0.005868242891
0.00648905107
0.007174269707
0.007890854641
0.008613277337
0.009319274441
0.009995221756
0.0106220605
0.01119203367
0.0116707407
0.01200598264
0.01207984639
0.01205605033
0.01218757941
0.01253614719
0.01288368221
0.0132529296
0.01381764144
0.01345411817
0.01733355943
0.02190080503
0.0292604803
0.03623879087
0.03510524257
0.03339652308
0.03198379172
0.02916732413
0.0271662349
0.02615715069
0.02674670961
0.02746076394
0.02753988503
0.02725177103
0.02682771743
0.02677799094
0.02685433295
0.02722930908
0.02751388303
0.02864867
0.09667891281
0.1093982011
0.05110875436
0.02476277391
0.0142617737
0.009150390087
0.006568193722
0.005315611988
0.00492893433
0.005000443638
0.005352607264
0.005867738703
0.006488690592
0.007174091731
0.007890948212
0.008613675546
0.009320722748
0.0099973877
0.01062994827
0.01120310503
0.01170213395
0.01206168183
0.01221881896
0.0122041178
0.01231081792
0.01257434375
0.01299682326
0.01349100492
0.01372131812
0.01494412645
0.01740388127
0.02636446549
0.04367698394
0.06261856417
0.05370426839
0.04716741519
0.04763458691
0.03977082272
0.03526639424
0.03205831167
0.02961085729
0.02815671197
0.02719632483
0.02611868107
0.02506934076
0.02460450774
0.02441596153
0.02452680466
0.02504475945
0.02548530786
0.09284830363
0.1093983774
0.05110890156
0.02476288626
0.01426186315
0.00915046576
0.006568267353
0.005315761653
0.004928994501
0.005000403313
0.005352131382
0.005867359718
0.006488608245
0.007174442633
0.007891985435
0.008615826781
0.009325036987
0.01000506666
0.01064480054
0.01123246297
0.01174863139
0.01214985714
0.01238144305
0.01237113296
0.01243212685
0.01256705318
0.01279125295
0.01315018381
0.01274817477
0.01374743214
0.01931412805
0.0363412786
0.07121914492
0.1784096107
0.1384612078
0.1104536333
0.09832616233
0.07695928433
0.06076356781
0.05048132561
0.04369342058
0.03821004479
0.03423463909
0.03125898699
0.02900220122
0.02749408608
0.02646282216
0.02584654417
0.02573710215
0.0254132033
0.09072046991
0.1093986643
0.05110912784
0.02476304829
0.0142619943
0.009150574303
0.006568373827
0.005316018997
0.004929238547
0.005000494284
0.005352225255
0.005867724752
0.006489284063
0.00717554087
0.007893812045
0.008618979959
0.009330720633
0.01001560878
0.01066412799
0.01126660494
0.01180698495
0.01225510627
0.01257961412
0.01273065745
0.01271682218
0.01277418472
0.01289673193
0.01307936107
0.0135374556
0.01571011659
0.02367395203
0.04411362338
0.0908840607
0.2992723771
0.02958376202
0.0293932425
0.04039495774
0.03949401188
0.03763439297
0.03620929534
0.03541218261
0.03477227548
0.0345321543
0.03457901725
0.03471786641
0.03497513901
0.03531521147
0.0358054959
0.03664809404
0.03722333923
0.1103708366
0.1093990523
0.0511094504
0.02476329154
0.01426219255
0.009150742532
0.006568539862
0.005316356463
0.004929628924
0.005000664896
0.005352562584
0.005868344655
0.006490381384
0.007177292553
0.007896588398
0.008623525348
0.009338833625
0.01002849898
0.01068583975
0.01129980751
0.01185944599
0.01234806189
0.01274954701
0.01304382494
0.01320950315
0.01324502977
0.01325438023
0.01333303032
0.0137138089
0.01556742959
0.02177015591
0.03861155517
0.07262384531
0.1791560927
0.1397427087
0.1110047985
0.09288327357
0.07365499819
0.05825750136
0.04815895841
0.04190633018
0.0374721895
0.0344305507
0.03218990576
0.03053347398
0.02937012441
0.02861596104
0.02833379347
0.02811258892
0.02848952805
0.09650390339
0.109399522
0.05110980913
0.02476353677
0.01426238055
0.009150904469
0.006568699418
0.005316844578
0.004930367029
0.005001309077
0.005353416365
0.00586955741
0.006491803378
0.007179335586
0.007899492795
0.00862772932
0.009345369883
0.01003933133
0.01069945392
0.01132155363
0.01189561539
0.01241627625
0.01287117615
0.01326235828
0.01357641601
0.01382825698
0.01402470908
0.01428448182
0.01470809136
0.01596793346
0.019403235
0.02856425889
0.04540673769
0.06340179075
0.05468238917
0.04727808836
0.04186131516
0.03615909552
0.0318387845
0.0287049049
0.02668277016
0.02523586189
0.02420934937
0.02352651704
0.02312353508
0.023001904
0.02311292886
0.02346064305
0.02416694194
0.02442473496
0.09244515953
0.1094000667
0.05111019377
0.02476381875
0.01426261467
0.009151130492
0.006568926
0.00531734794
0.004931143927
0.005001942589
0.005354228006
0.005870483467
0.006493562085
0.007181891942
0.00790330485
0.008633531159
0.009354763625
0.01005265225
0.01071869007
0.0113463197
0.01193469359
0.01247662835
0.01297240799
0.01341932274
0.01382646872
0.01418638196
0.01452478877
0.01487162254
0.01526833229
0.01594162763
0.01742120367
0.02112902417
0.02773468154
0.0336595432
0.03055687227
0.02790037715
0.02582144518
0.02379692407
0.02213857164
0.02112159777
0.02043081293
0.02000720191
0.01979432641
0.01977601657
0.01992935525
0.02031347388
0.02085883841
0.02158983555
0.02262357701
0.02282300468
0.09116592826
0.1094006557
0.05111063136
0.02476410483
0.01426283257
0.009151320638
0.006569110266
0.005318182031
0.004932481097
0.005003425719
0.005355894929
0.005872666787
0.006495765287
0.00718422385
0.007905722073
0.008636844067
0.009359514394
0.01006028581
0.01073052112
0.01136279865
0.01195638858
0.01251015578
0.01302330734
0.01350013967
0.01394342206
0.01435256441
0.01473828148
0.01512649541
0.01553547202
0.01600879444
0.01671339144
0.01804298847
0.02028595482
0.02231834734
0.0217130221
0.0206628056
0.01982730006
0.01911177955
0.01859279989
0.01827472249
0.01811757009
0.01809279254
0.01824090176
0.01853134853
0.0189517632
0.01953939363
0.02026984686
0.02117291011
0.02236992706
0.02299566027
0.09202952774
0.109401306
0.05111115007
0.02476452596
0.01426321247
0.009151685872
0.006569473785
0.005318899748
0.00493344122
0.005004296975
0.005357052618
0.005874614008
0.006498881116
0.007188860073
0.007912381523
0.008645990388
0.009372091895
0.01007734271
0.01075352892
0.01139310377
0.01199440969
0.01255645543
0.01308010789
0.01357193601
0.01403459408
0.01446981421
0.01488625427
0.01529958435
0.01572485945
0.01616531499
0.01664844097
0.0172307801
0.0180044552
0.01870634144
0.01873569111
0.01821717893
0.01777835335
0.01745609676
0.01724577774
0.01715072746
0.01717297403
0.01724592546
0.01744987809
0.01783893663
0.01834735388
0.01902180518
0.01984419196
0.02083457413
0.02211217665
0.02293949102
0.09220319375
0.1094019669
0.05111162055
0.0247648121
0.01426341526
0.00915187154
0.006569678866
0.005320368858
0.004935997683
0.005019520856
0.005376527744
0.00589855682
0.006527089752
0.00722100188
0.007948502659
0.008686095126
0.009416287999
0.01012638125
0.01080777365
0.01145428861
0.01206344144
0.01263348849
0.0131654792
0.01366559027
0.01413595164
0.01458266343
0.01500979155
0.01542992735
0.01585917344
0.01629726498
0.01672909857
0.01715978515
0.01759428019
0.01796968714
0.01817033431
0.01820885883
0.01816808446
0.01805128605
0.01786201183
0.01757558592
0.01745051276
0.01741814504
0.017503016
0.0178360464
0.01835760156
0.01902390384
0.01985460683
0.0208585522
0.02215530891
0.02315199292
0.09263586023
0.1094026216
0.05111232212
0.0247654614
0.01426418546
0.009152786829
0.006570718517
0.005322162445
0.004950335665
0.005047794258
0.00541464099
0.005947735416
0.006588178008
0.00729442245
0.008034566686
0.008784959377
0.009527955541
0.01025123067
0.01094581403
0.0116062473
0.01222987056
0.01281544236
0.01336397469
0.01387980586
0.0143648917
0.01482438774
0.01526511342
0.01569608616
0.01612243746
0.01655671115
0.01697605883
0.01737584288
0.01773872622
0.01803395443
0.0182363265
0.01834939986
0.018355666
0.01826184167
0.01808662479
0.01780200083
0.0176252201
0.0175631733
0.01763041806
0.01792833457
0.01844255226
0.01910343243
0.01992800376
0.02092821301
0.02222419318
0.02340019694
0.09303321828
0.109403265
0.05111346029
0.02476626995
0.01426554379
0.009154774364
0.006573264885
0.005347231439
0.004992844855
0.005102469057
0.005482349533
0.006028665057
0.006682072086
0.007400886026
0.00815321716
0.008915206178
0.009669375224
0.01040342342
0.0111083543
0.01177923252
0.01241328342
0.01300951824
0.01356963442
0.01409698709
0.01459459292
0.0150671028
0.01552082846
0.0159596075
0.01638874622
0.01680586476
0.0172009813
0.01757534002
0.01791589044
0.01820191244
0.01841517279
0.01854510301
0.01855227321
0.01840631388
0.01819924253
0.01795384277
0.01775611109
0.01768379376
0.01774886301
0.01804865841
0.01855887412
0.01921665617
0.02003563128
0.0210312125
0.0223245017
0.02360616118
0.0933520429
0.1094038958
0.05111837618
0.02477065872
0.0142724524
0.009164323344
0.006608653367
0.005409276578
0.005073272557
0.005207634606
0.005614254129
0.006189657826
0.006872743188
0.007621464755
0.008403402077
0.009194161891
0.009976045395
0.01073636902
0.01146623686
0.01216076103
0.0128172371
0.01343485441
0.01401554921
0.01456319259
0.0150797942
0.01557050956
0.01604052444
0.01649325721
0.01693429456
0.01735282936
0.01775109926
0.01811963097
0.01844961648
0.01872793339
0.01893633324
0.01902095638
0.0188724294
0.01841895044
0.01808161183
0.01792148357
0.0178606044
0.01788048754
0.01803937532
0.01838916198
0.01889827772
0.01953717977
0.02032436013
0.02135356518
0.02261293663
0.02400574582
0.09375661814
0.1094044814
0.05114048865
0.02479000444
0.01429771314
0.009258557621
0.00672604149
0.005557631148
0.00525951577
0.00543501059
0.00588381226
0.00650044047
0.007224391526
0.0080106847
0.00882760216
0.009649040018
0.01045715985
0.01123985794
0.01198890303
0.01269979964
0.01337030668
0.0139997205
0.01459145613
0.01514835696
0.01567294981
0.01617350389
0.01664667151
0.01710941608
0.01754933883
0.01797488812
0.01838390913
0.01875941605
0.01909467293
0.01938118171
0.01957068674
0.01952531309
0.01901320444
0.01859594818
0.01830030348
0.01814380782
0.01817816145
0.0184094174
0.01873609107
0.0191598491
0.019692422
0.02037465442
0.02114322275
0.02223407437
0.02337723522
0.02482177429
0.09433901704
0.1094173846
0.05123181055
0.02488721578
0.01446519984
0.009479061693
0.006947009543
0.005886139287
0.005693510352
0.005978593608
0.006541004971
0.007272675496
0.008106839628
0.008995803092
0.009902144538
0.01080209246
0.0116772728
0.01251498689
0.01330791541
0.01405414854
0.01475227173
0.01540304887
0.01601095445
0.01657902162
0.01711149015
0.01761622869
0.01809338804
0.01855330341
0.01899604717
0.01941991264
0.01982699469
0.0202066968
0.02055295561
0.02085528916
0.02103024559
0.02076877759
0.02015025278
0.0195576003
0.01911769153
0.01885808916
0.01877106453
0.01908311323
0.01952102247
0.02006026075
0.02070534557
0.02147632455
0.02232241887
0.02343095698
0.02439582293
0.0257984232
0.09452468513
0.1096137307
0.05158137553
0.02583022337
0.01520670262
0.01010020435
0.007676379989
0.006783677551
0.00671431906
0.007108747246
0.007779198806
0.008614882025
0.009542433011
0.01051009681
0.01148106774
0.01242950116
0.01333955408
0.01420106452
0.0150081942
0.01575737533
0.01644988269
0.01708945573
0.01768474309
0.01823685406
0.01875238901
0.01923708093
0.01970005244
0.02014486768
0.02057478425
0.02099182634
0.02139314642
0.02177835676
0.02213914207
0.02248617179
0.02275133317
0.02277807862
0.02211237221
0.02135250667
0.02074815557
0.0203548801
0.02018798378
0.02056450912
0.02118067639
0.02193674293
0.0228004889
0.02379827273
0.02484680089
0.0261643698
0.02706356833
0.0280213442
0.09542660449
0.1106576632
0.05025754872
0.02634534709
0.01614965335
0.01146245617
0.009326845521
0.008540418951
0.008551530558
0.009067625299
0.009908257708
0.01095000138
0.01210324408
0.01330215468
0.01449952659
0.01566313363
0.01677093811
0.01780856338
0.0187685183
0.0196501998
0.0204572867
0.02119334993
0.02186543606
0.02247769854
0.02304116773
0.02356400355
0.02406595024
0.02453718588
0.02499961146
0.02543742454
0.02585451154
0.0262607325
0.02666788625
0.02711661571
0.02750677877
0.02755545799
0.02665062712
0.02568770095
0.02488654481
0.02433013449
0.02403708997
0.02453853452
0.025267712
0.02611325459
0.02706397386
0.02813505984
0.02928542008
0.03061541333
0.03137658547
0.03362375984
0.1023864524
0.1173505321
0.0495973889
0.02658843258
0.01743028129
0.01357114311
0.01219483466
0.01218125835
0.01298372607
0.01428215792
0.01586901898
0.01760056072
0.01937577852
0.0211233415
0.02279380961
0.02436080779
0.02581231353
0.02714225793
0.02834803774
0.02943708778
0.0304245288
0.03132323178
0.03214687793
0.03290603331
0.03360606981
0.03426304327
0.03490026458
0.03552857725
0.03614761703
0.03677665551
0.03748377972
0.03851447061
0.04028063706
0.04310791447
0.04608753062
0.04624246079
0.04526321375
0.04450758474
0.04395227635
0.04365623854
0.04369513985
0.04436011261
0.04532233794
0.04647290033
0.04776109598
0.04917690342
0.05066077741
0.05230375482
0.05348037604
0.05678575652
0.1428961084
0.1103609052
0.0458760559
0.02162298436
0.01249994619
0.008517566198
0.006748199904
0.006075676083
0.006030572686
0.006384106694
0.00700454226
0.007804304776
0.008718511372
0.009696980163
0.01070005574
0.01169733432
0.01266573741
0.01358923964
0.01445647294
0.01526112383
0.01599905936
0.01667180642
0.01728185095
0.01783329303
0.0183278028
0.01877046442
0.01916661992
0.01953368228
0.01985908881
0.02025308215
0.02096998553
0.02265264866
0.02615272716
0.03198408908
0.03851114383
0.03742949268
0.03444724001
0.03180214488
0.02950277119
0.02768310731
0.02625515368
0.02520737917
0.02450849903
0.02411662234
0.02398417649
0.02406703964
0.02432610091
0.02472835216
0.02546297064
0.02647987936
0.0944154205
0.1003267338
0.04236354656
0.02071876606
0.01103674475
0.006477175138
0.004105570378
0.002768008761
0.001963448159
0.001454056093
0.001118172267
0.000889538761
0.0007300760307
0.0006168476589
0.0005354632131
0.0004765753608
0.0004339213369
0.0004031390734
0.0003811655283
0.0003658273577
0.0003555053909
0.0003492492351
0.0003462551816
0.0003461920203
0.0003489283384
0.0003544336901
0.000363256715
0.000374997895
0.0003909406717
0.0004111251328
0.0004409520601
0.0004898556521
0.0005790230502
0.0007338214369
0.0009305675952
0.0009535124418
0.0009765087455
0.001017635859
0.001081072708
0.001182866028
0.001321803084
0.001501171843
0.001720650663
0.001978112854
0.002269968717
0.002590928829
0.002934353427
0.003282724011
0.005203410432
0.005389276962
0.01275704615
0.09870644651
0.04169511628
0.02048568579
0.01095699575
0.00644750825
0.004090514377
0.002755404497
0.001948522644
0.001434573383
0.001092892742
0.0008576793631
0.0006911162386
0.0005704717421
0.0004815601019
0.0004152103109
0.0003653333972
0.0003277380201
0.0002995973144
0.0002788508531
0.0002641261329
0.0002543820884
0.0002488934307
0.0002472296207
0.00024903396
0.0002541790555
0.0002627680626
0.0002750379809
0.0002911005946
0.0003115670178
0.0003368463726
0.0003676517824
0.0004042449821
0.0004470710648
0.0004954389617
0.000548744103
0.0005961891833
0.0006457379041
0.0007291723828
0.0008627670016
0.00103575277
0.001244607441
0.001488241041
0.001764626156
0.002070064758
0.002399888047
0.002748827016
0.003106056409
0.005063090559
0.00523737926
0.009160304015
0.09880069433
0.0421621288
0.02081451383
0.01101700145
0.006481763516
0.004107601636
0.002763852877
0.001952422942
0.001435992422
0.001092940455
0.0008569690757
0.0006900124987
0.0005692011431
0.0004802320327
0.000413878287
0.0003640151805
0.0003264679068
0.0002983160296
0.0002775175948
0.0002626280394
0.0002526383447
0.0002468176195
0.0002446976077
0.000245993098
0.0002506484802
0.0002586697539
0.0002703086998
0.0002858170952
0.0003055798132
0.0003301007763
0.0003592840636
0.0003929950024
0.0004307063968
0.0004711289954
0.0005108605915
0.000542917894
0.0005969151122
0.0006753839365
0.0007837382403
0.0009337089676
0.001119011823
0.001337085998
0.001585334177
0.001859937182
0.002155821232
0.002468892167
0.003072690249
0.006314139111
0.006424953375
0.01015843519
0.099208758
0.04287530001
0.02082348525
0.01093814883
0.006447555221
0.004087369723
0.002750111087
0.001942267074
0.001427754157
0.001085595299
0.0008498394234
0.0006826276322
0.0005612143188
0.0004713994384
0.0004040074658
0.0003529447417
0.0003140701998
0.0002844995864
0.000262207098
0.0002457552345
0.000234119336
0.0002266139179
0.0002227575644
0.0002222725853
0.0002251196038
0.0002312865678
0.0002410703107
0.0002546075109
0.0002722269911
0.0002939098689
0.000320181153
0.000350573995
0.0003842795053
0.0004204431322
0.0004581052281
0.0004955064324
0.0005538483035
0.0006365609425
0.0007460409404
0.0008879673994
0.001062874426
0.001270285355
0.001507829581
0.001771511133
0.002058236961
0.002659321546
0.00345266202
0.006528276518
0.006589507098
0.01024651542
0.09920928015
0.04287344148
0.02082688582
0.01093254482
0.006446697209
0.004078267741
0.002744070842
0.0019379299
0.001424408576
0.001082853175
0.0008474907952
0.0006805438782
0.0005593214388
0.0004696449342
0.0004023525537
0.0003513583297
0.0003125201265
0.0002829502354
0.0002606052301
0.0002440325921
0.0002321978481
0.0002244032904
0.0002201871525
0.0002193135684
0.0002217219672
0.0002273740401
0.0002366886288
0.0002497053528
0.000240049706
0.0002648632968
0.0003541653183
0.00041781939
0.0004434072733
0.0004695668033
0.0005017907605
0.0005364619328
0.0005926122117
0.0006736372381
0.0007817878177
0.0009188372915
0.001084371352
0.001279572791
0.00150300822
0.001780575951
0.002175366142
0.003017972814
0.003747322206
0.006654052925