/*--------------------------------*- C++ -*----------------------------------*\
| =========                 |                                                 |
| \\      /  F ield         | OpenFOAM: The Open Source CFD Toolbox           |
|  \\    /   O peration     | Version:  2.2.1                                 |
|   \\  /    A nd           | Web:      www.OpenFOAM.org                      |
|    \\/     M anipulation  |                                                 |
\*---------------------------------------------------------------------------*/
FoamFile
{
    version     2.0;
    format      ascii;
    class       volScalarField;
    location    "6";
    object      k;
}
// * * * * * * * * * * * * * * * * * * * * * * * * * * * * * * * * * * * * * //

dimensions      [0 2 -2 0 0 0 0];

internalField   nonuniform List<scalar> 
86889
(
0.01361570512
0.008933526488
0.007385521196
0.007156882633
0.007789830463
0.009072400737
0.01083915228
0.01294676704
0.01526979826
0.01770858546
0.020187746
0.02265145018
0.02505820794
0.02737806175
0.0295957482
0.03170435319
0.03370137769
0.035584965
0.03736173206
0.03904135828
0.04063476854
0.04215499171
0.0436101123
0.04500652474
0.04636187985
0.04769518832
0.0490097662
0.05032192216
0.05163526926
0.05300538904
0.05462155585
0.05678684244
0.05972760916
0.06285422877
0.06411139832
0.0646564621
0.06540357638
0.06636462334
0.06759713626
0.06915689584
0.0712820514
0.0737578769
0.07651625994
0.07952057533
0.08275121271
0.08614506871
0.08972148656
0.09311076364
0.09760996707
0.1498386996
0.01309531109
0.009722214723
0.007202888436
0.006115918787
0.005909496521
0.006321603363
0.00719015835
0.008395369905
0.009841209223
0.01144869756
0.01315358912
0.01490403816
0.01665957785
0.01839026904
0.02007500453
0.0216984079
0.02325046091
0.02472463415
0.02612195992
0.02744320276
0.02869346078
0.02987524361
0.03099308368
0.03205547078
0.03307198973
0.03405523613
0.0350013987
0.03593320773
0.0368305867
0.03771693577
0.03858996886
0.03947053657
0.04038393348
0.04128146938
0.04192864047
0.0418798547
0.04184576609
0.0420598209
0.04256292679
0.04338255149
0.04501877771
0.04700691575
0.04926921922
0.05180584612
0.05462337862
0.05767073845
0.06098208357
0.06392447436
0.06772803195
0.1177163801
0.01300593604
0.01050153329
0.007002787052
0.005417911666
0.00470784964
0.004691889549
0.005304843619
0.006296295382
0.007510111918
0.008857409758
0.01028113372
0.0117401965
0.01320371097
0.01464866894
0.01605845755
0.01742191337
0.01873235235
0.01998579568
0.02118021612
0.02231543448
0.02339579711
0.02442686493
0.02541082523
0.02635127094
0.02725536895
0.02813039149
0.02898086244
0.02981068352
0.03062477359
0.03142237166
0.03221034342
0.03298420062
0.03375777006
0.03448672575
0.0350463038
0.03511163808
0.03515318878
0.03545966426
0.03604027344
0.03692343812
0.03841264713
0.04027914388
0.04245108019
0.04490976985
0.04766915643
0.05065059333
0.05397561952
0.0570121715
0.05945885551
0.1092015496
0.01298775839
0.01028593943
0.00664514781
0.005058409044
0.004322683235
0.004104097714
0.004497627678
0.005351028126
0.006466256052
0.007733760355
0.009092639444
0.01050325442
0.01193507972
0.01336289132
0.01476895181
0.01614064226
0.01746828949
0.01874580188
0.01997138965
0.02114443274
0.02226548609
0.02333794422
0.02436442153
0.02534910998
0.02629680219
0.02721240075
0.02810249861
0.02896949249
0.02981910516
0.03064973821
0.0314596233
0.03224256949
0.03299409504
0.0336531654
0.03396637863
0.03400251987
0.03405071891
0.0343316994
0.03488565986
0.03570904899
0.03703190722
0.03864474527
0.0405461151
0.04274704065
0.04525997647
0.04801965906
0.05114896427
0.05423882297
0.05727666405
0.1078196146
0.01298741319
0.01023148138
0.006596728642
0.004975846622
0.004189545365
0.003937555861
0.004196068378
0.004935364979
0.00594405115
0.00710859343
0.008368060825
0.009686643613
0.01103527038
0.01239150613
0.01373713767
0.01505839141
0.01634569802
0.01759244584
0.0187948678
0.01995077205
0.02105967434
0.02212448274
0.02314733957
0.02413079822
0.02508091905
0.02600201856
0.02690041616
0.02777470523
0.02863415993
0.02947154665
0.03027953904
0.03105672495
0.03179886601
0.03247073584
0.03296221883
0.03307769275
0.03328573816
0.03366726084
0.03427266622
0.03516682656
0.03639455389
0.03789506277
0.0396915302
0.04180031259
0.04424763738
0.04695544778
0.05010352164
0.05341306532
0.05655339076
0.107545699
0.0129873076
0.01021824174
0.006584399639
0.004959562409
0.004133340446
0.003848780718
0.004058681661
0.004750302644
0.005712847441
0.006833807493
0.008052320779
0.009332170847
0.01064577968
0.01197041002
0.01328806502
0.01458531058
0.01585218836
0.01708145021
0.01826890328
0.01941201464
0.02050979557
0.0215639513
0.0225777213
0.02355337322
0.02449634918
0.02541046235
0.0263006681
0.0271729704
0.02802201013
0.02884573935
0.02964746643
0.0304214406
0.03116051533
0.03185198013
0.03245312588
0.03287547257
0.03305319894
0.03338423323
0.03396059659
0.03475237014
0.0357469518
0.0370484603
0.03880753323
0.040907045
0.04333397676
0.04608055435
0.04921161335
0.05266789118
0.05582918709
0.1069924432
0.01298724174
0.01021565223
0.006581546921
0.004955176403
0.004126851714
0.003822928147
0.004001740014
0.004665832309
0.005595514629
0.006681828847
0.007864923788
0.009109277859
0.01038752761
0.01167717146
0.01296056578
0.01422438625
0.01545892253
0.01665685106
0.01781405618
0.01892808249
0.0199978061
0.02102436731
0.02201075163
0.02296028462
0.02387737881
0.02476659966
0.02563563229
0.02648902673
0.02732646419
0.02814535619
0.02894670277
0.02972793605
0.03047370391
0.03116970689
0.03181064445
0.0323590824
0.03279555794
0.03323413734
0.03373205724
0.03441477971
0.03530765192
0.03649088941
0.03820288807
0.04033070225
0.0428041274
0.04562053656
0.04878898067
0.05231079532
0.05539264647
0.1065711581
0.01298718424
0.010215134
0.006580948112
0.004954216525
0.004125387318
0.003820895203
0.003978732711
0.004619720417
0.00553013093
0.006596939268
0.007760171139
0.008984908195
0.01024408993
0.01151518512
0.01278072179
0.01402717616
0.01524481384
0.01642626424
0.01756691491
0.01866434042
0.01971729187
0.02072660659
0.02169622052
0.02262751367
0.02352574292
0.02439768864
0.02525223346
0.02609651511
0.02694610564
0.02778536521
0.02861026517
0.02940872852
0.03016178883
0.03085914002
0.03150554793
0.03208462404
0.0325992619
0.03308868485
0.03356296848
0.03424291153
0.03512851972
0.03630420314
0.0379706939
0.04011168942
0.04260181046
0.04544192243
0.04863444484
0.05217852001
0.05521733001
0.1063644365
0.0129871253
0.01021502802
0.006580783575
0.004953950295
0.004124980944
0.00382032864
0.003977011819
0.004603992535
0.005495416793
0.006547321514
0.007694376814
0.008902110383
0.01014387906
0.01139720782
0.01264481883
0.01387328887
0.01507259091
0.01623564343
0.01735712094
0.0184347346
0.01946668578
0.02045376657
0.02140137411
0.0223123136
0.02319266033
0.02404632493
0.02488479578
0.02572520705
0.02657521759
0.02742064738
0.02825405852
0.02906213774
0.0298170925
0.030511683
0.03115864587
0.0317288739
0.03221770811
0.03267783475
0.0331467969
0.0338877114
0.03481367123
0.03601826532
0.03774489188
0.03990464839
0.04241642613
0.04528094536
0.04849438541
0.05205607978
0.05488612305
0.1059201845
0.01298706712
0.01021493688
0.006580709842
0.004953880111
0.004124898762
0.003820211129
0.003975388936
0.004600928471
0.005476137619
0.006521214458
0.007661229678
0.008862130851
0.01009742228
0.01134432263
0.01258554299
0.01380762555
0.01499989499
0.01615559193
0.01726818985
0.01833595874
0.01935798364
0.02033564852
0.0212749749
0.02217846201
0.02304985198
0.02389493819
0.02472840306
0.02556347436
0.02640860237
0.02725684485
0.02809189985
0.02889235152
0.02964018464
0.03031720028
0.03092570227
0.03148690037
0.03202000842
0.03250960711
0.03299111266
0.03373955219
0.03468268899
0.03598989297
0.03776046824
0.03989012278
0.04242422716
0.0452976649
0.04851900161
0.05208889433
0.0549445128
0.1059692867
0.01298700874
0.01021489117
0.006580649476
0.004953807847
0.004124804396
0.003820090402
0.003974897056
0.004600193643
0.005475545372
0.006520378157
0.007659658279
0.008859446844
0.01009332692
0.01133829863
0.01257714671
0.01379593654
0.01498385486
0.01613375344
0.0172391606
0.01829941576
0.01931432793
0.02028328474
0.02120886513
0.02209232064
0.02293862264
0.02375638757
0.02456828569
0.02538883979
0.02623280448
0.02708613358
0.02793645082
0.02875261833
0.02951779166
0.03019842258
0.03078134575
0.03126084785
0.03163775911
0.03204534982
0.03258382367
0.03338726032
0.03446559641
0.03592239458
0.03773464599
0.03989588345
0.04246588616
0.04534661987
0.04857039037
0.05213652712
0.05468011871
0.1055447313
0.01298695708
0.01021483255
0.006580599585
0.004953761531
0.004124749499
0.003820018662
0.003973994734
0.004598614091
0.005473725046
0.006518336597
0.007657031869
0.008856793532
0.0100905949
0.01133561493
0.01257366223
0.01379125026
0.01497652153
0.01612250513
0.01722341011
0.01828010146
0.01928629765
0.0202422839
0.02114021393
0.02198639004
0.0227822372
0.02355615135
0.02432497147
0.02512547116
0.02597473137
0.02684102316
0.02770314902
0.02852274463
0.02926697736
0.02999458425
0.03072135787
0.0315017914
0.03207124443
0.03245428682
0.03308949784
0.03378266815
0.03483315071
0.03623648471
0.03801971509
0.04017530162
0.04273823852
0.04561939035
0.04885600392
0.0524431117
0.05536970909
0.1064547915
0.01298690789
0.01021480923
0.006580567355
0.004953724082
0.004124699225
0.003819953455
0.003973640573
0.004597970409
0.005473286158
0.0065177705
0.007656394933
0.008855402159
0.01008851895
0.01133233394
0.0125685668
0.01378278314
0.01496432884
0.01610474957
0.01720118431
0.0182468346
0.01923535972
0.02015600878
0.02100669191
0.02177160221
0.02246693056
0.02311224333
0.02377866208
0.02453184091
0.02542077557
0.02638913733
0.02737464314
0.02830230793
0.02915071164
0.0297982123
0.03041726134
0.02950702874
0.02923394331
0.02943926063
0.02994133726
0.03104063434
0.03247348109
0.03421527891
0.03628267399
0.03867515236
0.04148042577
0.04457204421
0.04799380592
0.05172589528
0.05418384026
0.1050770849
0.01298686659
0.01021475152
0.006580518458
0.004953678039
0.004124652137
0.003819893239
0.003973162387
0.004597231136
0.005472632934
0.006516866679
0.007655133236
0.008853945444
0.01008644768
0.01132948684
0.01256457161
0.01377662712
0.01495419771
0.01609200705
0.01718271116
0.01821785043
0.0191792552
0.02005265786
0.02081778409
0.02145160854
0.02194575416
0.02239432984
0.02288898146
0.02345412093
0.02427419768
0.02523062766
0.0262674183
0.02722206973
0.02814797225
0.02896983654
0.03010792469
0.03147447736
0.03159047526
0.03049782271
0.03050766318
0.03148589978
0.03282372872
0.03435821755
0.03619150445
0.03851993351
0.04127338922
0.04432314789
0.04769679445
0.05136693491
0.05344455878
0.1044115184
0.01298683159
0.01021470969
0.006580478279
0.00495363697
0.004124609767
0.003819839409
0.003972918401
0.004596963967
0.005472661681
0.006516819962
0.007654863729
0.00885325036
0.01008514783
0.01132725716
0.01256071083
0.01376936485
0.01494234055
0.01607159247
0.0171528128
0.01817131762
0.01909841632
0.01990372988
0.02053713307
0.02100056377
0.02150520487
0.02205257919
0.02264198412
0.02309803201
0.02411441313
0.02511349423
0.02642430524
0.02767085083
0.02869019207
0.02961714048
0.03014565829
0.03276280679
0.035740443
0.03645110862
0.03793312677
0.03943636053
0.04052590566
0.04136906066
0.04230323736
0.0434543884
0.044964086
0.04668767346
0.04880824668
0.05132106855
0.05350819305
0.1043399376
0.0129868064
0.010214675
0.006580448407
0.004953608607
0.004124583687
0.003819804993
0.003972691621
0.004596764939
0.005472598831
0.006516897377
0.007654712459
0.008852808687
0.01008431332
0.01132574662
0.012557966
0.01376421855
0.01493259453
0.01605341698
0.01712067195
0.01811652143
0.01900180302
0.01972365803
0.02020544156
0.02072416203
0.02129695775
0.0219497506
0.02274407092
0.02217620214
0.02299769206
0.02221841058
0.02307155
0.02446803793
0.02585665096
0.02676098833
0.02798354237
0.02957203105
0.03035584324
0.03043813355
0.03228138441
0.03401759808
0.03546446276
0.03674131199
0.03825149932
0.03996484732
0.04251197732
0.04536029835
0.04855308696
0.05206658908
0.05459830343
0.1057576444
0.01298679033
0.01021465616
0.006580430355
0.00495359054
0.004124565464
0.003819782521
0.003972592458
0.004596788039
0.005472734636
0.00651768698
0.007655535854
0.008853417419
0.01008456232
0.0113253813
0.012556561
0.01376076727
0.01492591945
0.01603999469
0.01709340916
0.01807221345
0.01891871669
0.01957071319
0.02001545798
0.02057294166
0.02128263073
0.02218005203
0.02310778168
0.02356744574
0.02409071807
0.02306717548
0.02428974677
0.02700913155
0.02987436836
0.0309442213
0.03145312625
0.03096322096
0.03064779639
0.03149891949
0.03351188579
0.03560789082
0.03740164655
0.03893880922
0.04002582375
0.04119239391
0.04339083348
0.04592857668
0.0488334855
0.05208498417
0.05406868253
0.1050202472
0.01298678497
0.01021465062
0.00658042559
0.004953585975
0.00412456152
0.00381977776
0.003972552835
0.004596768027
0.005472671681
0.006517939912
0.00765583928
0.008853635517
0.01008464383
0.01132523599
0.01255615009
0.01375938655
0.01492377554
0.01603253231
0.01708260425
0.01804234363
0.01886494336
0.01943867396
0.01984961266
0.02042565676
0.02122673551
0.02194793533
0.02269541923
0.02373332385
0.02323717765
0.02519807333
0.02993297168
0.03730110782
0.04434856789
0.04474268128
0.0445021614
0.04437802947
0.04282063855
0.04208804197
0.04219975652
0.04377197197
0.04556993693
0.04692004137
0.04783965326
0.04864906907
0.05010513152
0.05173048082
0.05371512968
0.05567632739
0.05735110579
0.1073633165
0.01298678981
0.01021466508
0.006580436807
0.004953595192
0.004124569752
0.003819787172
0.00397259217
0.004596719325
0.005472671697
0.006517387396
0.007655205072
0.008853104341
0.01008426167
0.01132509493
0.01255628635
0.01376051319
0.01492561301
0.016039756
0.01709312984
0.01807193823
0.01891829052
0.01957018371
0.02001748721
0.02057463004
0.02128427325
0.02218192828
0.02310923459
0.02356575962
0.02473228043
0.02633968074
0.03464833275
0.0498218439
0.06519846326
0.06072264307
0.05734067062
0.05847113772
0.05228849175
0.04950468809
0.04797448923
0.0470245807
0.04687928922
0.0472490045
0.04734043319
0.04745465554
0.0484586082
0.04978079771
0.05146884554
0.05356547497
0.05457628854
0.1043871468
0.01298680533
0.01021468723
0.006580457568
0.004953615468
0.004124589783
0.003819812488
0.003972711646
0.004596731417
0.005472553145
0.006516754942
0.007654603767
0.00885274112
0.01008427626
0.01132573723
0.01255797401
0.01376426138
0.01493260592
0.01605364629
0.01712095556
0.01811661083
0.01900176323
0.0197233991
0.02020561512
0.02072392418
0.02129526024
0.02194707193
0.02274304333
0.02218085305
0.02352871295
0.02811862775
0.04319986548
0.07029570042
0.12806558
0.1118160118
0.09923220741
0.09274383777
0.07969295839
0.06899696234
0.06291190121
0.05945934386
0.05632859371
0.05426825189
0.05285362195
0.05189340569
0.05171071041
0.05190367591
0.05250474266
0.05358284298
0.05317820231
0.1020626875
0.01298683057
0.01021471907
0.006580485182
0.004953644309
0.004124618463
0.003819850369
0.00397293623
0.004596942222
0.005472577483
0.006516746558
0.00765483554
0.008853246451
0.01008515452
0.01132727363
0.01256073552
0.01376940298
0.0149423683
0.01607180919
0.01715303097
0.01817143082
0.01909842714
0.01990327463
0.02053658798
0.02099934776
0.02150097884
0.02204610971
0.02263854354
0.02338669936
0.02572252174
0.03308426653
0.05075709143
0.08452052029
0.1660466972
0.1767132319
0.1712966568
0.1730378042
0.1675709688
0.1480889439
0.1388851666
0.1353338526
0.1319547117
0.1294066866
0.1279698888
0.1268860553
0.1262779018
0.1259162187
0.1258981025
0.1264271495
0.1206812575
0.1659387266
0.01298686467
0.01021476287
0.00658052669
0.004953686903
0.004124661499
0.003819906633
0.003973205893
0.004597273663
0.005472641675
0.006516945319
0.007655279451
0.008854120856
0.01008662226
0.01132968364
0.01256479719
0.01377683907
0.01495439904
0.01609222312
0.01718319624
0.01821809798
0.01918004787
0.02005307372
0.02081845569
0.02145338067
0.0219519087
0.02240365871
0.02289816783
0.02362929461
0.02567555131
0.03156792771
0.04639485437
0.07270528815
0.1296756528
0.114143176
0.1013114195
0.09346995014
0.08144271075
0.07037525914
0.06326843769
0.05952799734
0.05708950391
0.05572503769
0.05495730908
0.05465785392
0.05478955573
0.05534352555
0.05638136415
0.05751639962
0.05829516066
0.1083727225
0.01298690595
0.01021481056
0.006580568654
0.004953726906
0.004124705052
0.003819963198
0.003973665729
0.004598041722
0.005473311473
0.006517824745
0.007656504762
0.008855520094
0.01008858322
0.01133241093
0.01256867886
0.01378285868
0.01496443056
0.01610484328
0.0172014266
0.0182470097
0.01923590958
0.02015650195
0.02100942755
0.02178306636
0.02248866674
0.02312393622
0.02380349729
0.02461634797
0.02616693516
0.02966302817
0.03816124499
0.05279295443
0.06726166355
0.06276915301
0.05847053865
0.05551755144
0.05124729137
0.04805909776
0.04596643629
0.04509013095
0.04477212661
0.04488661386
0.04540195771
0.04628162545
0.04756354794
0.04915492834
0.05107595847
0.05338241357
0.05479590282
0.1048800347
0.01298695385
0.0102148263
0.00658059591
0.004953760171
0.00412475371
0.003820029071
0.00397406858
0.004598769901
0.005473868296
0.006518529976
0.007657268034
0.008857055448
0.01009084363
0.01133582729
0.01257396734
0.01379154715
0.01497692027
0.0161229978
0.01722412656
0.01828086519
0.01928738499
0.02024386142
0.02114751214
0.0220056647
0.02281407709
0.02359132415
0.02436258697
0.02516781744
0.02621276321
0.02797899201
0.03173836662
0.03807040132
0.04387308228
0.04234470422
0.04090201331
0.03986494189
0.03856325307
0.03754826561
0.03735775452
0.03755945036
0.03812386273
0.03901616516
0.04025436527
0.04183061739
0.04384079292
0.04613953464
0.04875908427
0.05172022882
0.05362777094
0.1040537688
0.0129870056
0.01021488414
0.006580645659
0.004953807379
0.004124808654
0.003820100018
0.0039749332
0.004600269114
0.005475584606
0.006520474236
0.007659760735
0.008859551112
0.01009339427
0.01133834601
0.01257718207
0.01379595279
0.01498386813
0.0161337816
0.01723917123
0.01829955573
0.01931444273
0.02028421502
0.02121242882
0.02210107732
0.02295112334
0.02376966987
0.02457934745
0.02539882593
0.02627091558
0.02735068647
0.02899815213
0.03148951121
0.03386201007
0.03399651989
0.03369641928
0.03355730276
0.03347861864
0.03363389397
0.03407264856
0.0347684187
0.03571630746
0.0370209107
0.03865797473
0.04062403193
0.04296867064
0.04561323558
0.04859058818
0.05191358743
0.05441647818
0.105257542
0.01298706294
0.0102149237
0.006580700201
0.004953875108
0.004124898143
0.003820216751
0.003975485639
0.004601111708
0.005476311647
0.006521461044
0.007661521256
0.008862468559
0.0100978215
0.01134478237
0.01258609181
0.01380826418
0.01500062467
0.0161564567
0.01726914162
0.01833706479
0.01935919356
0.02033689071
0.02127611588
0.02217996304
0.02305075931
0.02389500386
0.0247269518
0.02556268327
0.02641101029
0.0273010847
0.02828666831
0.02945948145
0.03059616501
0.03116431429
0.03125798235
0.03140903789
0.03168744223
0.03212145206
0.03275207839
0.03361822797
0.03464223356
0.03599365115
0.03777748227
0.03989561897
0.04240074205
0.04523202673
0.04840338166
0.05191579682
0.05469556467
0.105689667
0.01298712095
0.01021500038
0.006580766172
0.004953942131
0.004124982798
0.003820342078
0.003977140051
0.004604128873
0.005495519733
0.006547474465
0.007694525882
0.008902208798
0.0101439005
0.01139716804
0.01264470999
0.01387314113
0.01507239586
0.01623542772
0.0173569043
0.0184345306
0.01946652788
0.02045359421
0.02140123934
0.02231228781
0.02319252807
0.02404559936
0.02488352226
0.02572367212
0.02657346737
0.02742151325
0.02827393908
0.02914261533
0.02997525821
0.03067034373
0.03124042964
0.03176032283
0.03223956118
0.03270844032
0.03318009337
0.03391886209
0.03484440141
0.03604840261
0.03777410868
0.03993231718
0.04243454922
0.04528915552
0.04849327349
0.05204748344
0.05498418769
0.1060905463
0.01298717901
0.01021509439
0.006580920061
0.004954195978
0.004125373776
0.003820886073
0.003978547755
0.004619490584
0.005529964288
0.006596877221
0.007760177342
0.00898500351
0.01024430525
0.01151553352
0.01278122932
0.01402785517
0.01524569029
0.01642735168
0.01756816915
0.01866571967
0.01971871249
0.02072787802
0.0216969742
0.0226277914
0.02352520953
0.02439605439
0.02524960044
0.0260927339
0.02694185137
0.02778126759
0.0286081765
0.02941407869
0.03017393846
0.03086676126
0.03150020791
0.03205926039
0.03255757786
0.0330384381
0.03351086881
0.03420281217
0.03509859751
0.03628214335
0.03795465177
0.04009671838
0.04258682899
0.04542636243
0.04861825312
0.05216317563
0.05523775959
0.1064093866
0.01298723637
0.01021561929
0.006581525502
0.004955163771
0.004126847423
0.003822925254
0.004001900891
0.004666249855
0.00559610792
0.006682934751
0.00786606562
0.00911024891
0.01038834368
0.01167784884
0.01296113224
0.01422483239
0.01545926378
0.01665703626
0.01781397855
0.01892759756
0.01999687262
0.0210231972
0.02200950138
0.02295857119
0.02387490389
0.02476485435
0.02563309582
0.02648583709
0.02732335327
0.02814047165
0.0289421298
0.02972471333
0.03047248684
0.03117128297
0.03181674086
0.03237677259
0.03282591395
0.03327436049
0.03377804111
0.03445010866
0.03533312851
0.0365088003
0.03817532815
0.04029733276
0.04277038225
0.04558790937
0.04875884967
0.05228604945
0.05543146998
0.1066439731
0.01298730143
0.01021817165
0.006584345047
0.004959513688
0.004133280916
0.003848723644
0.0040584332
0.004749888056
0.005712208623
0.006832617696
0.008051146796
0.0093309682
0.01064475881
0.01196965259
0.01328761593
0.01458514139
0.01585222214
0.01708156846
0.01826904699
0.01941221621
0.02051022349
0.02156466908
0.02257893576
0.02355493273
0.02449758997
0.02541224176
0.02630308915
0.02717651224
0.02802468122
0.02885091459
0.02965194796
0.03042642111
0.03116650677
0.03185979728
0.03246376482
0.03288729222
0.0330646077
0.03339473721
0.03397021194
0.03476141034
0.03575587615
0.03705409476
0.03877028706
0.04086588822
0.04329386968
0.04604232952
0.04919737191
0.05265392205
0.0558482538
0.107021326
0.0129874082
0.01023152555
0.006596767119
0.004975871416
0.004189572407
0.003937613706
0.004196909582
0.004936808617
0.005945841714
0.007110623344
0.008370239613
0.009689257955
0.01103813056
0.01239512561
0.01374097383
0.01506223238
0.01634953586
0.01759627681
0.01879872627
0.01995489053
0.02106404832
0.02212908116
0.02315248075
0.02413659799
0.02508904569
0.02600784382
0.02690862776
0.02778244138
0.0286381114
0.02947637444
0.03028601672
0.03106523876
0.03181155892
0.0324887714
0.03298202501
0.0330959475
0.03330414022
0.03368577948
0.03429087353
0.0351892343
0.03642017995
0.03792453498
0.03972353974
0.04183509752
0.04428741974
0.04699848071
0.05014680595
0.05344614145
0.05661140025
0.1075983811
0.01298881494
0.01028658384
0.006646051151
0.005059080761
0.004323169688
0.004104447828
0.004497270696
0.005350214099
0.006465248585
0.007732695364
0.009091625337
0.01050238798
0.01193442556
0.01336187156
0.01476824242
0.01614009682
0.01746774519
0.01874544047
0.0199716498
0.02114509113
0.02226627898
0.02333890388
0.0243656087
0.02535012744
0.02629951272
0.02721485327
0.02810591013
0.02897448286
0.02982110089
0.03064995582
0.03145569024
0.03223753944
0.03299182331
0.0336543629
0.03397173775
0.03400917187
0.03405849152
0.03434013612
0.03489340349
0.03571649958
0.03704027764
0.03865574336
0.04056063496
0.04276657929
0.04528490571
0.04805146042
0.0511769595
0.05426040848
0.05732164913
0.1078477782
0.01300695802
0.01050253749
0.007004057251
0.00541895528
0.004708801078
0.004694827622
0.005308866789
0.00630096943
0.007515578264
0.008863645257
0.01028807692
0.01174784527
0.0132120553
0.01465767473
0.01606788692
0.01743221964
0.01874370285
0.01999816672
0.0211928944
0.02232876991
0.02340885017
0.02443998861
0.0254233856
0.02636458263
0.02726892177
0.02814463617
0.02899599609
0.02982725257
0.03064219539
0.0314416235
0.03222913832
0.0330037813
0.03377907469
0.03450955834
0.03507547052
0.03513836755
0.03517721389
0.03548127413
0.03605935798
0.03693978214
0.03843682805
0.0403095449
0.04248830643
0.04495220912
0.04771785145
0.05069387859
0.0540273918
0.05708108311
0.05955701188
0.1092750663
0.01309531573
0.009722214433
0.007202560849
0.006111874669
0.005903583481
0.006315753286
0.007184195837
0.008389007464
0.00983447243
0.01144166618
0.01314619396
0.01489624934
0.01665143306
0.0183816957
0.02006591812
0.02168900379
0.02324058629
0.02471501909
0.02611174031
0.02743343488
0.02868240218
0.02986381135
0.03098125924
0.03204387062
0.03305931885
0.0340443741
0.03499345921
0.03592475122
0.03682866207
0.03771109497
0.03858374633
0.03946233075
0.0403845403
0.04128117335
0.04193314587
0.0418845746
0.04185037356
0.0420645996
0.04256774768
0.04338823809
0.04502897911
0.04702329702
0.04929280535
0.05183592569
0.05466045014
0.05771363354
0.06104428668
0.0639875478
0.06779264022
0.1177654664
0.01361569871
0.008933456068
0.007385518783
0.00715756494
0.007792135809
0.009076109899
0.0108432706
0.01295071901
0.01527337232
0.01771161216
0.02019012614
0.02265303203
0.02505888761
0.02737796657
0.02959489535
0.03170298992
0.03369896534
0.03558154622
0.03735662533
0.03903597452
0.04063012891
0.04215028785
0.04360531776
0.04500134399
0.04635258156
0.04767897002
0.04899231746
0.05029625978
0.05160838723
0.05298289188
0.05459948328
0.05676109772
0.05970794431
0.06283229948
0.06409927999
0.06464699313
0.06539593395
0.06635839858
0.06759195705
0.06916032532
0.07129171651
0.07377327484
0.07653741987
0.07954778295
0.08278318045
0.08618286411
0.08976092241
0.0931581958
0.09768004762
0.1498912595
0.01307037525
0.00763918179
0.005131276573
0.004187123303
0.004034367471
0.004401953297
0.005147382168
0.006181157243
0.00743335821
0.008845459323
0.01036802419
0.01195863016
0.01358163453
0.01520750484
0.01681253819
0.01837807706
0.01989072818
0.0213405221
0.0227215004
0.02402946827
0.02526518051
0.02643039028
0.02752827981
0.02856018063
0.02953078032
0.03044541568
0.03132019846
0.0321461523
0.03301985925
0.0341678562
0.03615745964
0.03974105162
0.04534368582
0.05153775702
0.05165808214
0.05010547881
0.04864648626
0.0473216844
0.04643598148
0.04593795425
0.04587962134
0.04626849722
0.04708978509
0.04831290756
0.04990058409
0.0518091105
0.05398080799
0.05655831976
0.05932121601
0.1089031371
0.01226608048
0.007195075335
0.004661793034
0.003202016084
0.002346051112
0.001807972654
0.001450772268
0.001204016806
0.001028826326
0.0009023633978
0.0008104930781
0.0007440283604
0.0006967154801
0.0006641234887
0.0006430180088
0.0006309733829
0.0006260621055
0.0006268005702
0.0006320614693
0.0006409106408
0.0006529698497
0.0006678309292
0.0006856102116
0.0007066355047
0.0007314208405
0.0007613801921
0.0007968123249
0.0008408170156
0.0008956436014
0.0009730574137
0.001093534992
0.001295844753
0.001621719619
0.002044953467
0.002294619502
0.002626993056
0.003102744273
0.00376635787
0.004686144194
0.005898111216
0.00743891862
0.009329892162
0.01157704327
0.01416932184
0.01707765994
0.0202548452
0.02361992711
0.02912846996
0.03187246183
0.04035328774
0.01212328325
0.007184776678
0.004667307847
0.003212316829
0.002354590079
0.001811910259
0.00144862992
0.001194487119
0.001010490619
0.0008737415355
0.0007701356373
0.0006906086966
0.0006291214002
0.000581546925
0.0005449670533
0.0005172940311
0.0004969433488
0.0004828732464
0.0004742357175
0.0004705664087
0.0004714755444
0.0004767559676
0.0004864583416
0.0005006504558
0.0005197184372
0.0005444741367
0.0005761558856
0.0006162383492
0.0006676524052
0.0007341833553
0.0008217953789
0.0009382918094
0.001095174338
0.001306873083
0.001593708476
0.001966293976
0.002468585966
0.00318881447
0.004191573692
0.005493900149
0.007117798911
0.009081439372
0.01139062109
0.01403497853
0.01698766527
0.02020453846
0.02361183928
0.02903285416
0.03179192811
0.03747182658
0.01213152758
0.007235542952
0.0047162556
0.003221078582
0.002360754769
0.00181452645
0.001449141421
0.001193725513
0.001009005789
0.0008719216598
0.000768257558
0.0006889016123
0.0006277841809
0.0005807059388
0.0005447178051
0.0005177084264
0.0004981321356
0.0004848252651
0.0004769644646
0.0004739788763
0.0004755228258
0.0004813822893
0.0004915551688
0.0005062183698
0.0005258857626
0.0005512479954
0.0005835955923
0.0006246481107
0.0006770423259
0.0007447548981
0.0008325283847
0.0009474703628
0.001099682415
0.001302632155
0.001572409137
0.001924101071
0.002438939096
0.00315974071
0.004133503947
0.005415674205
0.007024656507
0.008977646472
0.01128053304
0.01392338761
0.01687868992
0.02009662286
0.02379353194
0.0309796258
0.03351554511
0.03884802545
0.0121689312
0.007321271133
0.004718669185
0.003204728876
0.002351239867
0.001807615957
0.001443184924
0.001188238111
0.001003507873
0.0008659817739
0.0007614803177
0.0006809328374
0.0006183010814
0.0005694453588
0.0005314412006
0.0005021923335
0.000480184358
0.000464296712
0.0004537272442
0.0004479162032
0.0004464954404
0.0004493234886
0.0004563844013
0.0004678757715
0.0004843535968
0.0005064993054
0.0005357127434
0.0005735743962
0.0006226770592
0.0006862290003
0.0007701274596
0.0008811648901
0.001029111839
0.001228357377
0.001498956768
0.001865180744
0.002396043935
0.003135095032
0.004122462787
0.005403716541
0.007007260832
0.008958647688
0.01126248055
0.01390829932
0.0168702807
0.02048519608
0.02436190713
0.03140294709
0.03384571084
0.03907882729
0.01216895765
0.007320530349
0.004718865706
0.003203426641
0.002350467689
0.001804192758
0.001440266957
0.001185657232
0.001001119721
0.0008637046569
0.000759287884
0.0006788107155
0.0006162543158
0.0005674778545
0.0005295560328
0.0005003905502
0.0004784559461
0.0004626188874
0.0004520431809
0.0004461384453
0.0004445140357
0.0004470037031
0.0004536172863
0.0004646195219
0.0004805372455
0.0005020132485
0.0005306639541
0.0005679198363
0.0005712474416
0.0006384843252
0.0008290215003
0.001000729825
0.001140188352
0.001325911197
0.001588895204
0.001950939821
0.002478235766
0.003214530312
0.004200115024
0.005474093067
0.007069415071
0.009007312574
0.0113009807
0.01397680018
0.01707770126
0.02100705658
0.0247615834
0.03159371578
0.03401150291
0.03916505966
0.01216890953
0.007320288788
0.004718894198
0.003203194263