/*--------------------------------*- C++ -*----------------------------------*\
| =========                 |                                                 |
| \\      /  F ield         | OpenFOAM: The Open Source CFD Toolbox           |
|  \\    /   O peration     | Version:  2.2.1                                 |
|   \\  /    A nd           | Web:      www.OpenFOAM.org                      |
|    \\/     M anipulation  |                                                 |
\*---------------------------------------------------------------------------*/
FoamFile
{
    version     2.0;
    format      ascii;
    class       volScalarField;
    location    "6";
    object      nut;
}
// * * * * * * * * * * * * * * * * * * * * * * * * * * * * * * * * * * * * * //

dimensions      [0 2 -1 0 0 0 0];

internalField   nonuniform List<scalar> 
86889
(
0.0001421796507
0.0001448198506
0.0001846339281
0.0002644877525
0.0004024957112
0.0006076408937
0.0008683317314
0.001162223086
0.001469641508
0.001778803996
0.002084177282
0.002383387981
0.002675333346
0.002959479074
0.003235810003
0.003504485209
0.003765715985
0.004019727444
0.004266976934
0.004508105136
0.00474375529
0.004974619736
0.005201246136
0.005424290587
0.005644662348
0.005863398442
0.006081573188
0.006299940516
0.006519710525
0.006742234846
0.006968465792
0.007201111189
0.00744599425
0.007712716828
0.008000194788
0.008313630871
0.00865191129
0.009021097231
0.009423179815
0.009857108659
0.01031730923
0.0108138016
0.0113515048
0.01193162522
0.01255009718
0.01320383862
0.01387276939
0.01461409182
0.01513281885
0.01414912423
0.0001394738012
0.0001692665007
0.0001772320975
0.0002083895282
0.000274047013
0.0003853809805
0.0005444532064
0.0007413054702
0.0009606753699
0.001189894665
0.001421296323
0.001650934938
0.001876907606
0.002098299401
0.002314630957
0.002525556137
0.00273083837
0.00293032334
0.003124112708
0.00331230121
0.003495050837
0.003672459712
0.003844774767
0.004012446351
0.004176044493
0.004336229837
0.004493332979
0.004648060365
0.004800709244
0.004952270373
0.005103909631
0.005257509719
0.005414951946
0.005577730374
0.005745118465
0.005926439047
0.006138629858
0.006401359978
0.006705465659
0.007051628573
0.007440171616
0.007880114234
0.008379323587
0.008941411457
0.009564700694
0.01024482243
0.01096536881
0.01175719496
0.01231426889
0.01218963748
0.0001388967467
0.0001924378484
0.0001708948823
0.0001737605116
0.00019753455
0.0002582124252
0.0003735830276
0.0005317393789
0.0007145751168
0.000908307587
0.001105058084
0.001300891999
0.001493937071
0.001683287168
0.001868473714
0.002049246309
0.002225482209
0.002397117658
0.002564135892
0.002726568177
0.002884623841
0.003038560317
0.003188534034
0.003334769061
0.003477635048
0.003617574809
0.003755002454
0.003890392357
0.004024341269
0.00415760171
0.004291265419
0.004426770084
0.0045657146
0.004709893716
0.004860053852
0.005024527971
0.005215157739
0.005460613299
0.00574944765
0.00608411945
0.006467480975
0.006907097581
0.007410625885
0.007982067293
0.008618787909
0.009317638268
0.01005205002
0.01085002816
0.01141027576
0.01125903119
0.0001387576831
0.0001858749669
0.000159708763
0.0001592210693
0.0001774334707
0.0002182356549
0.0003092971212
0.0004525832478
0.0006293614888
0.0008228731027
0.001023037729
0.00122466149
0.001425099445
0.001622893528
0.001817306722
0.002007917605
0.002194407775
0.00237658553
0.002554411507
0.00272787724
0.002897024866
0.00306201229
0.003222989268
0.003380164221
0.003533819426
0.003684304773
0.003832097497
0.003977656298
0.00412160741
0.004264605172
0.004407541059
0.004551545379
0.004698045907
0.004848046853
0.005002163022
0.005167022351
0.005339037251
0.005552669188
0.005812266751
0.006118386074
0.006473318783
0.006892949463
0.007386081637
0.007956820061
0.008602755123
0.009320732084
0.01007290858
0.01087519104
0.01147890057
0.01107488588
0.0001387562263
0.0001842279044
0.0001579882788
0.0001558517084
0.0001706222182
0.000207463746
0.0002851648843
0.0004169041091
0.0005852270775
0.0007731627793
0.0009697586509
0.001169268808
0.001368559931
0.001566023921
0.00176074171
0.001952168926
0.002139980434
0.00232396139
0.00250399336
0.002680001787
0.002851979025
0.003020051049
0.003184330284
0.003344965558
0.00350227214
0.003656591759
0.003808395745
0.003958027989
0.004106166691
0.004253369637
0.004400416649
0.004548526318
0.004699221802
0.004853980126
0.005014177929
0.005184971473
0.00536817341
0.005580693969
0.005833094568
0.006132120913
0.006487330392
0.006913211862
0.007418734325
0.008007957655
0.008676246446
0.009418078787
0.01019744062
0.0110157869
0.01164437414
0.01104567164
0.0001387546973
0.0001838300361
0.0001575197121
0.0001551055484
0.000167779723
0.0002017302521
0.0002740667425
0.0004002846014
0.000563983435
0.0007485185623
0.0009426660766
0.001140317721
0.001338215872
0.001534589099
0.001728456703
0.001919259001
0.002106637382
0.002290339226
0.002470221542
0.00264618867
0.00281820399
0.002986342724
0.003150746188
0.00331154854
0.003469041121
0.003623545971
0.003775501251
0.003925426112
0.004073644416
0.004220513218
0.004367501897
0.004516432747
0.004668459762
0.004824861265
0.004987350594
0.005158756874
0.005343036592
0.005552145612
0.005796804871
0.006091095161
0.00643797173
0.00685346388
0.00736596515
0.007963799065
0.008645682882
0.009399064981
0.01021706422
0.01104997578
0.01171461042
0.01099761203
0.0001387541017
0.0001837548822
0.0001574117849
0.0001549073893
0.0001674298939
0.0002001033458
0.0002695401957
0.0003924502092
0.000552313188
0.0007330645293
0.0009235894952
0.001117760954
0.001312258045
0.001505273517
0.001695820558
0.001883333892
0.002067464353
0.002247956168
0.002424672561
0.002597524714
0.002766469046
0.002931558531
0.003092919908
0.003250719092
0.003405211316
0.003556732761
0.003705805676
0.003852948821
0.003998769151
0.004144202092
0.004290404881
0.004439625078
0.004592568763
0.004750050436
0.004914229333
0.005086521372
0.005269843429
0.005476446155
0.005721123471
0.006017711112
0.006356624782
0.006762538151
0.007276979489
0.007886178415
0.008579659057
0.009348527678
0.01018743429
0.01103498271
0.01173943843
0.01096623033
0.0001387536909
0.0001837402262
0.0001573880566
0.0001548617014
0.000167346769
0.0001999673161
0.0002676894377
0.0003879930633
0.000545259371
0.0007233670979
0.0009112550278
0.001102851148
0.001294844322
0.001485413747
0.00167357736
0.001858754467
0.002040593061
0.002218832768
0.002393309153
0.002563929277
0.002730635499
0.002893461467
0.003052562328
0.003208029066
0.003360124332
0.003509258441
0.003655993464
0.003801099173
0.003946331418
0.004092524377
0.004239995892
0.004390514084
0.004544598966
0.004703050508
0.004868126146
0.005041484171
0.005226709037
0.005434638956
0.005680493804
0.005976992469
0.006316485925
0.006724061902
0.007236248114
0.007851720088
0.008551670572
0.009328282982
0.01017523998
0.01103039972
0.01175467511
0.01095628115
0.0001387532748
0.0001837390698
0.0001573845698
0.0001548538857
0.000167331342
0.0001999410146
0.0002675624226
0.0003864992205
0.0005414903713
0.0007175972854
0.0009033491619
0.001092741253
0.001282500499
0.001470809589
0.001656699546
0.001839596749
0.00201913473
0.00219506922
0.002367201806
0.002535442123
0.002699704476
0.002860009532
0.003016592132
0.003169805015
0.003319954939
0.003467174032
0.003611985295
0.003755596319
0.003900169793
0.00404590092
0.004193090592
0.004343455417
0.004497305854
0.004655380734
0.004820160531
0.004993425853
0.005178952952
0.005387806915
0.005635272474
0.005931870494
0.006272815294
0.006682942792
0.007203277196
0.007823890743
0.00852961094
0.009313265056
0.01016748124
0.01102986933
0.01180620628
0.01093674801
0.0001387528727
0.0001837375139
0.0001573828438
0.0001548516052
0.0001673276614
0.0001999341968
0.0002674157697
0.0003861869722
0.0005393383089
0.0007144822509
0.0008992487587
0.001087680824
0.001276518195
0.001463921726
0.001648923058
0.001830946855
0.002009590714
0.00218462427
0.002355787586
0.002523005928
0.002686249454
0.002845762972
0.003001835266
0.003154765043
0.003304895185
0.003452118683
0.003596905392
0.003740243761
0.003883825065
0.00402874374
0.004175192623
0.004324756951
0.004477860243
0.004635113232
0.004798805386
0.004970491674
0.005155963099
0.005364447635
0.005611868749
0.005908819519
0.006252737632
0.006678063496
0.007204765714
0.007823346119
0.008535318933
0.009323439519
0.01018182793
0.01104792006
0.01182585564
0.01094960366
0.0001387524649
0.0001837378338
0.0001573828039
0.0001548513928
0.0001673269934
0.0001999330018
0.0002673834792
0.0003861323123
0.000539304458
0.0007144381609
0.0008991552888
0.001087512247
0.001276256317
0.001463533783
0.001648382056
0.001830197119
0.002008568805
0.002183242484
0.002353962601
0.002520773791
0.002683838011
0.002843457418
0.002999697447
0.003152347538
0.003301957796
0.003448715987
0.003593145357
0.003735866331
0.003878179277
0.004021439724
0.004166454882
0.004314747733
0.004467078844
0.004624167448
0.004788350478
0.004954555402
0.005124479321
0.00532569039
0.005575222545
0.005874544758
0.006233527143
0.006676027273
0.007205958177
0.007828008495
0.008547536537
0.009340038354
0.01020265691
0.01107266141
0.01191568541
0.01094167715
0.0001387521069
0.0001837372772
0.0001573821845
0.0001548507481
0.0001673258846
0.0001999309541
0.0002673053577
0.0003859765915
0.0005391141389
0.0007142221972
0.0008988880954
0.001087249425
0.001276004311
0.001463309839
0.001648142138
0.001829924726
0.00200819029
0.002182683014
0.002353204433
0.002520133461
0.002683431695
0.002843189658
0.002999130348
0.003151040495
0.003299118977
0.003444707793
0.003588014587
0.003729660551
0.003871109165
0.004013232006
0.004157096294
0.004303819113
0.004454723806
0.004614740217
0.004785949223
0.004947795463
0.005085286645
0.005237932039
0.005489054463
0.005801371401
0.006181245239
0.006636710631
0.00717959503
0.00781482492
0.008546402289
0.009349679848
0.01022249223
0.01110130383
0.01187052263
0.01100452945
0.0001387517653
0.0001837378904
0.0001573825289
0.000154851103
0.0001673260696
0.0001999310997
0.0002672810427
0.0003859239886
0.0005390857128
0.0007141915967
0.0008988656118
0.001087183307
0.001275905916
0.00146314924
0.001647882783
0.001829478086
0.002007526998
0.002181716662
0.002352176409
0.002519099345
0.00268214161
0.002840932073
0.0029953423
0.003145093791
0.003289787932
0.003430203974
0.003568522981
0.003705657241
0.003844125869
0.003985314817
0.004130434667
0.004279995529
0.004436392471
0.0046046936
0.004792600888
0.004739043619
0.004795568112
0.004928347425
0.005142101747
0.00547095582
0.005875433924
0.006360417278
0.006935245484
0.007604540664
0.008377079748
0.009221882739
0.01013672433
0.01105368895
0.0119676835
0.01092085159
0.0001387514789
0.000183737156
0.0001573818309
0.0001548503764
0.0001673252879
0.0001999297425
0.0002672419539
0.000385855573
0.000539024801
0.0007141102151
0.0008987595041
0.001087071259
0.001275761267
0.001462969258
0.001647653271
0.001829142422
0.002006985614
0.002181054955
0.002351682191
0.002518755403
0.002681283734
0.002838649493
0.002990453408
0.003135786617
0.003274199212
0.003407651724
0.003538804463
0.003663251935
0.003791936059
0.003924321093
0.004062083303
0.00420731551
0.004366639831
0.004554698031
0.004773806861
0.004856736333
0.00487340596
0.004812056351
0.004961000569
0.005301594141
0.005713473894
0.006178211568
0.006722080943
0.007382662938
0.008148631662
0.008985175395
0.009888071807
0.01079040304
0.01142506941
0.01073864816
0.0001387512359
0.0001837368257
0.0001573814705
0.0001548499799
0.0001673250213
0.0001999292025
0.0002672251183
0.0003858372003
0.0005390407538
0.0007141281929
0.0008987694423
0.001087060462
0.001275720846
0.001462881586
0.001647477881
0.001828776181
0.00200635411
0.002179961011
0.002350355694
0.002517016391
0.002678716548
0.002834221748
0.002981667244
0.003121004627
0.003257468896
0.003392567999
0.003527283712
0.00363553065
0.003767359272
0.00386262096
0.004010040088
0.004168926567
0.00434384194
0.004556991379
0.004701260392
0.004979806359
0.005160623443
0.004761335569
0.005019676526
0.005391921417
0.00577654868
0.006145580988
0.006561066516
0.007048157878
0.007618175866
0.008235606107
0.008902099949
0.009579534349
0.009861235801
0.01032757447
0.0001387510611
0.0001837363973
0.0001573810669
0.0001548495437
0.0001673246686
0.0001999285136
0.000267207327
0.000385821636
0.0005390411474
0.0007141479674
0.0008987776041
0.001087054977
0.00127569757
0.001462825053
0.001647356426
0.001828522078
0.002005841846
0.002178980354
0.002348681472
0.002514270473
0.002674630613
0.002827752853
0.002970170884
0.003109186309
0.003247898773
0.003389463977
0.003540420863
0.003473620583
0.003622526797
0.003512933341
0.00361216639
0.003761199467
0.003929047106
0.004123905929
0.004351302796
0.004477227929
0.004571346935
0.004604652253
0.004921384987
0.005295868923
0.005729329434
0.00620546926
0.006737323942
0.007329472077
0.008084170742
0.008903272242
0.009786129347
0.01066815584
0.01120282728
0.01079280294
0.0001387509495
0.0001837362539
0.0001573809082
0.0001548493747
0.0001673245564
0.000199928322
0.0002672006408
0.00038582792
0.0005390621332
0.0007142387984
0.0008988832547
0.00108715592
0.001275784145
0.001462880962
0.001647355411
0.001828403642
0.00200553527
0.002178290576
0.002347233413
0.002511861998
0.002670595539
0.002821067324
0.002954682008
0.003094416087
0.003242208785
0.00340700721
0.003562454499
0.00364315408
0.003672519652
0.003477339492
0.00357890219
0.003790862051
0.004038458517
0.004244615601
0.004446342129
0.004455713902
0.004569331834
0.004798525813
0.005096306737
0.005445224075
0.005845639675
0.006309173687
0.006782402769
0.007309549051
0.008011158877
0.008775236121
0.009602095258
0.01043260976
0.01094435763
0.01067223476
0.0001387509124
0.0001837362059
0.0001573808589
0.0001548493164
0.0001673245319
0.0001999282849
0.0002671974968
0.0003858266331
0.0005390568016
0.0007142652497
0.0008989179309
0.001087187863
0.001275809815
0.001462894433
0.001647354533
0.001828346698
0.002005429931
0.002177900258
0.002346614019
0.002510325221
0.002667815611
0.002815233156
0.002941314947
0.003080896508
0.003234780703
0.003365037044
0.003497897161
0.003668814225
0.003612052283
0.003296775897
0.00368198572
0.004279613209
0.004884588817
0.005132329656
0.005337076942
0.005541771173
0.005657860041
0.005868545843
0.006127339802
0.006447099483
0.006805918586
0.007194442721
0.007558294759
0.007939768768
0.008437794265
0.008968528045
0.009536722482
0.01013985589
0.01033288597
0.01073056498
0.0001387509458
0.0001837365154
0.0001573811312
0.0001548495668
0.0001673247581
0.000199928583
0.0002672004602
0.0003858206343
0.0005390546101
0.0007142071655
0.0008988462317
0.001087117806
0.001275744772
0.001462840644
0.001647314128
0.001828361979
0.002005489208
0.002178245739
0.002347184804
0.00251181073
0.002670535909
0.002820999989
0.00295498471
0.003094707954
0.003242461532
0.003407249134
0.003562618603
0.003642583894
0.003683836106
0.003587710658
0.004098153503
0.005114809483
0.006109618929
0.006179239645
0.006273732076
0.00645956384
0.006187143148
0.006254233744
0.006461339812
0.006721116012
0.007024616312
0.007387842277
0.007722460976
0.008084575972
0.008589535952
0.009134659863
0.009720539987
0.01031087603
0.01051866494
0.01056239951
0.0001387510537
0.0001837367833
0.0001573814103
0.0001548498633
0.0001673249995
0.0001999289918
0.0002672090091
0.0003858179542
0.0005390356027
0.0007141320485
0.0008987630804
0.0010870424
0.001275686065
0.0014628143
0.001647345562
0.001828511805
0.002005828193
0.002178975572
0.002348678185
0.002514253955
0.002674601863
0.002827709366
0.002970141824
0.003109145643
0.00324769293
0.00338908605
0.003540037347
0.003473369526
0.003624242657
0.003684305614
0.004621756867
0.006244580657
0.008273496838
0.008126852723
0.008023572989
0.00787305974
0.007427136186
0.007051137525
0.007056305554
0.007282268528
0.007473478344
0.007742271915
0.008042982386
0.008356720857
0.008753147159
0.009162259421
0.009599245399
0.01004001515
0.01001498729
0.0103340657
0.000138751229
0.0001837371153
0.0001573817014
0.0001548502424
0.0001673253417
0.0001999297163
0.0002672262847
0.0003858342385
0.0005390305906
0.000714117686
0.0008987615926
0.001087053283
0.001275712998
0.00146287262
0.001647467215
0.001828763493
0.002006337687
0.002179950821
0.002350342678
0.002516991507
0.00267867875
0.002834159326
0.002981592291
0.003120868877
0.003257060166
0.003391772894
0.00352657355
0.003636162886
0.003790444896
0.00416116338
0.005256095329
0.007074228931
0.008291562132
0.09500079692
0.08984476674
0.06671098331
0.06398951496
0.05244485219
0.04794398896
0.04654817997
0.04506705741
0.04364477629
0.04262314079
0.04173661986
0.04103342557
0.04040583116
0.0398410876
0.03925290549
0.03521330864
0.02245348105
0.0001387514657
0.0001837375313
0.0001573821408
0.0001548507529
0.0001673257572
0.0001999305522
0.0002672455968
0.0003858593196
0.0005390248451
0.00071411624
0.0008987708839
0.0010870842
0.001275772905
0.001462980624
0.001647663919
0.001829148823
0.002006986748
0.002181051615
0.002351686162
0.002518744845
0.002681285659
0.002838635668
0.002990436389
0.003135793853
0.003274418204
0.003408167892
0.003539281542
0.003664257036
0.003811229967
0.004119771387
0.005017239663
0.006550814009
0.008447492467
0.008390991038
0.008321805431
0.008465429909
0.008104845247
0.007651219646
0.007480655324
0.007610363894
0.007827912779
0.008117069831
0.008444495796
0.008805853201
0.009198823394
0.009633138773
0.01009738567
0.01059070942
0.01073549964
0.01095311372
0.000138751752
0.0001837379574
0.0001573825896
0.0001548512126
0.0001673263297
0.0001999316169
0.0002672829191
0.0003859304754
0.0005390873513
0.0007141950646
0.0008988728616
0.001087189621
0.001275905816
0.001463146897
0.001647878766
0.001829467171
0.002007511827
0.002181694329
0.002352152172
0.002519062838
0.00268211007
0.002840891224
0.002995368041
0.003145541371
0.003291565375
0.003431406533
0.003569928831
0.003707946294
0.003859219778
0.00408130766
0.004588435368
0.005524260411
0.006422087132
0.006484665294
0.006508138565
0.00662659225
0.006536823865
0.006528858507
0.006624728231
0.006857638494
0.007148909741
0.007490194244
0.007885587079
0.008336917178
0.008851710635
0.009408527562
0.01000773157
0.01061248824
0.01106391481
0.01070887816
0.0001387520847
0.0001837371408
0.0001573821012
0.0001548507504
0.0001673261448
0.0001999316158
0.000267311809
0.0003859919001
0.0005391287531
0.0007142413379
0.0008989102629
0.001087272088
0.001276023273
0.00146332306
0.001648157475
0.00182993502
0.002008199644
0.002182691641
0.002353216632
0.00252014035
0.002683440496
0.002843207929
0.002999372998
0.003152101667
0.003301996966
0.003448556295
0.003591955607
0.003733722324
0.003879140035
0.004044161402
0.004290740153
0.004703208541
0.005146720512
0.005281190312
0.005396619608
0.005539164142
0.005624306883
0.005731557781
0.005946716978
0.006214344403
0.006538075761
0.006921352112
0.007374450388
0.00790201427
0.008515597193
0.009185415572
0.009910698321
0.01064148194
0.01134094336
0.01068871705
0.0001387524436
0.0001837376486
0.0001573826627
0.000154851336
0.0001673271257
0.0001999334339
0.0002673861945
0.0003861389016
0.0005393069792
0.0007144450433
0.0008991611985
0.001087515915
0.00127625404
0.001463525787
0.001648367815
0.001830174887
0.002008538102
0.002183202616
0.002353910604
0.002520714042
0.002683762969
0.002843397851
0.002999749876
0.003152826149
0.003303093741
0.003450181665
0.003594552961
0.003737191388
0.00388002299
0.004028231181
0.004194446755
0.004399252549
0.004623873523
0.004790613777
0.004945619798
0.005111554819
0.005278085762
0.005475855961
0.005717464886
0.006004992059
0.006345560829
0.006762237208
0.007257945133
0.007837164056
0.008504235201
0.009237911597
0.01003612976
0.01084276448
0.01158930753
0.01083482158
0.000138752844
0.000183737207
0.0001573825952
0.0001548514458
0.000167327708
0.0001999345891
0.0002674244324
0.0003862051905
0.0005393562865
0.0007145068653
0.0008992763966
0.001087710527
0.001276550083
0.001463954664
0.001648957839
0.001830982299
0.002009625677
0.002184659431
0.002355819208
0.002523034966
0.002686271931
0.00284577325
0.003001825208
0.003154745208
0.003304836865
0.003452003972
0.003596698563
0.003739974277
0.003883545222
0.004029292018
0.004179277083
0.004338231476
0.004503888611
0.004665389877
0.004827066354
0.004994134593
0.005176899553
0.005384558055
0.00562908353
0.005923066819
0.006262788936
0.006681929955
0.007200117229
0.007807634722
0.008506241222
0.009279000232
0.01012067061
0.01097008676
0.01173715804
0.01090339145
0.0001387532454
0.000183738274
0.0001573839321
0.0001548534343
0.0001673311814
0.000199941466
0.0002675731527
0.0003865115754
0.0005414991629
0.0007176096083
0.0009033591999
0.001092744118
0.001282493027
0.001470791423
0.001656668727
0.00183955334
0.002019076709
0.002194996024
0.002367112648
0.002535335609
0.002699580064
0.002859862212
0.003016421046
0.00316960881
0.003319722936
0.003466882017
0.003611622397
0.003755155205
0.003899637467
0.004045319281
0.004192791818
0.004344382476
0.004500159006
0.004659259271
0.004823849797
0.004996929082
0.005182181327
0.005390534229
0.005637517527
0.00593358086
0.006273452635
0.006681926122
0.007199997853
0.007817638678
0.008518871228
0.009297574427
0.01014661898
0.01100434432
0.01175248635
0.0109349485
0.0001387536557
0.0001837391339
0.0001573871665
0.0001548609422
0.0001673461668
0.0001999667663
0.0002676723636
0.0003879681143
0.0005452372485
0.000723351931
0.0009112429076
0.001102842989
0.001294841526
0.001485416272
0.00167358589
0.001858768629
0.00204061319
0.002218858224
0.002393336135
0.002563953396
0.002730649869
0.002893453808
0.003052512584
0.003207927068
0.003359949455
0.003508986197
0.003655612517
0.003800589629
0.003945693161
0.004091756238
0.004239132406
0.004389656916
0.004543761652
0.004702050361
0.004866844667
0.00503940614
0.005223987293
0.005431552679
0.005677342144
0.005973537456
0.006312756663
0.006719945776
0.00723156982
0.007845834579
0.008544402736
0.009319543424
0.01016503933
0.0110190601
0.01173532464
0.01095378833
0.0001387540652
0.0001837539256
0.0001574109877
0.0001549067005
0.0001674293879
0.0002001027188
0.0002695542512
0.0003924916457
0.0005523753531
0.0007331793596
0.0009237117832
0.001117871384
0.001312355245
0.001505355931
0.001695887353
0.001883381982
0.002067492058
0.002247958288
0.002424640553
0.002597447778
0.002766339359
0.002931378445
0.003092691603
0.003250425651
0.00340483462
0.003556306362
0.003705291882
0.003852336238
0.003998063056
0.004143353905
0.004289431605
0.004438533084
0.00459135935
0.004748714571
0.004912749737
0.005085252098
0.005268771198
0.005475308972
0.005719446628
0.006015557027
0.006353766552
0.006758761104
0.007267133555
0.007874871693
0.008567437659
0.009335526827
0.01017384461
0.01102128909
0.01171466659
0.01096456272
0.0001387546553
0.0001838280785
0.0001575179739
0.0001551036766
0.0001677768171
0.0002017265179
0.0002740438915
0.0004002405284
0.0005639104284
0.0007483843296
0.0009425217015
0.00114016003
0.001338060392
0.001534441927
0.001728321356
0.001919134354
0.002106518988
0.002290219419
0.002470094342
0.002646051734
0.002818060617
0.002986193768
0.003150596979
0.003311393801
0.003468857078
0.003623346795
0.003775283688
0.003925209483
0.00407336733
0.004220232981
0.00436716519
0.004516030956
0.00466797917
0.004824281466
0.004986638973
0.005157876444
0.005342006088
0.005550874753
0.005795155104
0.006088932149
0.006435140032
0.006850045095
0.007356624754
0.007953204839
0.008634425524
0.009387289366
0.01020130945
0.01103435612
0.0116935534
0.01099464549
0.0001387561941
0.0001842291813
0.0001579894948
0.0001558526632
0.0001706233941
0.0002074670747
0.0002852410427
0.0004170511573
0.0005854216804
0.0007733908882
0.0009700084225
0.001169559366
0.001368875418
0.001566396202
0.001761138158
0.001952573766
0.002140388177
0.002324366634
0.002504393042
0.002680401422
0.002852376362
0.003020442961
0.003184725774
0.003345367863
0.003502730123
0.003656990202
0.003808819777
0.003958426302
0.004106436029
0.004253562067
0.004400555569
0.004548620218
0.004699289065
0.004854036309
0.005014170946
0.005184857556
0.005368100461
0.005580555349
0.005832720548
0.006130729955
0.006484651474
0.006908822729
0.007412185981
0.007998802007
0.008663891696
0.009402405174
0.0101791147
0.01099719881
0.01162030377
0.01104492158
0.0001387698881
0.0001858853422
0.0001597325979
0.0001592433467
0.0001774523374
0.0002182499201
0.0003092502309
0.0004524855532
0.0006292365363
0.0008227347338
0.001022895717
0.001224523273
0.001424969631
0.001622735861
0.001817156133
0.002007767198
0.00219424848
0.002376423165
0.002554264422
0.00272773847
0.002896884022
0.003061866125
0.003222835525
0.003379986548
0.003533661735
0.003684127113
0.003831921195
0.003977504291
0.004121379264
0.004264276185
0.004407026107
0.004550844519
0.004697198667
0.004847088084
0.005001117975
0.005165996701
0.005337990062
0.005551509462
0.005810740615
0.006116336695
0.006470558214
0.006889187529
0.007381003747
0.00795003526
0.008593883985
0.009309244557
0.01006008021
0.01086158373
0.01146269402
0.01107438647
0.0001389085659
0.0001924589317
0.0001709282012
0.0001737955253
0.0001975754761
0.0002584195388
0.000373921958
0.0005321759938
0.0007151122866
0.0009089340468
0.001105761795
0.001301666791
0.001494777523
0.001684187308
0.00186941767
0.002050248845
0.002226549683
0.002398249917
0.002565306007
0.002727779752
0.002885854574
0.003039805195
0.003189769901
0.003336012789
0.003478878566
0.003618815192
0.003756247113
0.003891649538
0.004025613163
0.004158893235
0.004292544344
0.004428015409
0.004566910311
0.00471101472
0.004861076247
0.005025396535
0.005215747062
0.005460864842
0.005749233415
0.006083285817
0.006465754994
0.006904281251
0.007406434814
0.007976280694
0.00861110399
0.009308572171
0.01004061316
0.010835323
0.01139250806
0.01126199152
0.0001394739055
0.0001692667277
0.0001772198876
0.0002081748137
0.0002736504957
0.0003849089763
0.0005439007513
0.0007406615831
0.0009599554492
0.001189114736
0.001420458031
0.001650040424
0.00187596075
0.002097296496
0.002313566183
0.002524435985
0.002729655141
0.002929101503
0.0031228216
0.003310967013
0.003493606144
0.003670919269
0.003843162948
0.004010771896
0.004174276686
0.004334412132
0.004491501082
0.004646188111
0.00479889508
0.004950447483
0.005102047068
0.005255564616
0.005412991066
0.005575795547
0.005743144792
0.00592438528
0.00613643235
0.006398989886
0.00670284757
0.007048628959
0.007436662779
0.007875946253
0.008374301205
0.008935372483
0.009557428858
0.01023641504
0.0109544967
0.01174431695
0.01230159233
0.01219090443
0.0001421796077
0.0001448180543
0.0001846340463
0.0002645262088
0.0004026605716
0.000607947511
0.000868702252
0.001162601627
0.001470004134
0.001779133827
0.002084462421
0.002383614541
0.002675490824
0.0029595656
0.003235820643
0.003504418973
0.00376556085
0.00401947323
0.00426660993
0.004507634564
0.004743209922
0.004973988743
0.005200509423
0.005423451403
0.005643706604
0.005862292991
0.006080239121
0.006298457715
0.00651794742
0.006740163793
0.006966195237
0.007198595167
0.007443029411
0.007709478083
0.007996646076
0.008309861446
0.00864788638
0.009016810241
0.0094185975
0.009851977939
0.01031164641
0.01080757678
0.01134463083
0.01192406639
0.01254196389
0.01319509451
0.01386386293
0.01460461777
0.01512219447
0.0141505958
0.0001393167607
0.0001144854054
0.0001095917148
0.0001262309546
0.0001719799819
0.0002584314897
0.0003924828865
0.0005701951733
0.0007789552279
0.001005318163
0.001239653446
0.00147626064
0.00171202492
0.001945236438
0.002174814273
0.002400005108
0.002620286125
0.002835242711
0.003044598336
0.003248152277
0.0034459158
0.003637972457
0.003824451094
0.004005474818
0.004181357853
0.004352520193
0.004519677016
0.004683183635
0.004845089685
0.005010485849
0.005194208044
0.005435058672
0.005785516837
0.006207362651
0.006416602346
0.006559315363
0.00669713496
0.006831248563
0.0070103053
0.007233879108
0.007515440918
0.007861340056
0.008275218002
0.008758788672
0.009311745427
0.00993075523
0.01060537658
0.01130645446
0.01196042459
0.01130525489
0.0001349700645
0.0001099818168
9.440274004e-05
8.360813363e-05
7.647716996e-05
7.165602667e-05
6.843425434e-05
6.644895693e-05
6.551571511e-05
6.553853578e-05
6.646243567e-05
6.824225971e-05
7.0823194e-05
7.413282513e-05
7.808312689e-05
8.257595064e-05
8.750290092e-05
9.276574953e-05
9.828448401e-05
0.0001039899293
0.000109873587
0.0001159255821
0.0001222024776
0.0001287944582
0.0001358445359
0.0001436256498
0.0001523792268
0.0001627551121
0.0001756058331
0.0001932538102
0.0002197049061
0.0002610072708
0.0003225549092
0.0004044468379
0.0004969783912
0.0006360396966
0.0008514165204
0.001180947993
0.001670853013
0.002368654205
0.003317658763
0.004553056624
0.006097990698
0.007960141116
0.01013080017
0.01258310861
0.01529555513
0.01467539407
0.01696458444
0.01148815354
0.0001340100892
0.0001114253142
9.570285555e-05
8.475937826e-05
7.73893542e-05
7.22333828e-05
6.854441086e-05
6.59022123e-05
6.405961334e-05
6.286818621e-05
6.223747858e-05
6.210913746e-05
6.244206965e-05
6.320647042e-05
6.4374649e-05
6.59216499e-05
6.781557498e-05
7.004399066e-05
7.258703423e-05
7.545238642e-05
7.86455805e-05
8.219044866e-05
8.614564293e-05
9.058434882e-05
9.563987406e-05
0.0001015370264
0.0001086250136
0.0001174077755
0.0001287632316
0.0001440189709
0.0001653229793
0.0001960079661
0.0002414529218
0.0003102552786
0.0004165723193
0.0005836537963
0.0008493422748
0.001255078246
0.00183274986
0.002622695855
0.003663545123
0.004987450617
0.006617357653
0.008564106968
0.01082228375
0.01336573872
0.01615447348
0.01498325874
0.01736849631
0.01379565576
0.0001340644073
0.0001117537823
9.617692905e-05
8.475820345e-05
7.738398289e-05
7.2140774e-05
6.838315412e-05
6.568671741e-05
6.380837392e-05
6.260383534e-05
6.19856332e-05
6.19013263e-05
6.231570057e-05
6.319808508e-05
6.452277079e-05
6.626641587e-05
6.840551778e-05
7.09147223e-05
7.377751691e-05
7.698735373e-05
8.055379018e-05
8.449802655e-05
8.887043793e-05
9.375520533e-05
9.930251782e-05
0.0001057282164
0.0001133982865
0.000122864147
0.0001350048865
0.000151224689
0.0001736211604
0.0002055827872
0.0002526944759
0.000324150178
0.0004355833041