/*--------------------------------*- C++ -*----------------------------------*\
| =========                 |                                                 |
| \\      /  F ield         | OpenFOAM: The Open Source CFD Toolbox           |
|  \\    /   O peration     | Version:  2.2.1                                 |
|   \\  /    A nd           | Web:      www.OpenFOAM.org                      |
|    \\/     M anipulation  |                                                 |
\*---------------------------------------------------------------------------*/
FoamFile
{
    version     2.0;
    format      ascii;
    class       volScalarField;
    location    "6";
    object      p;
}
// * * * * * * * * * * * * * * * * * * * * * * * * * * * * * * * * * * * * * //

dimensions      [0 2 -2 0 0 0 0];

internalField   nonuniform List<scalar> 
86889
(
591.7305714
591.3866621
591.2509201
591.0831986
590.8269687
590.5436641
590.2512339
589.9301879
589.5684248
589.1628725
588.7094574
588.2024978
587.6347308
586.998604
586.2838863
585.4800204
584.5754758
583.5562195
582.4068923
581.1094958
579.6425489
577.982061
576.098442
573.9604378
571.5266214
568.7545003
565.5850335
561.9552741
557.785505
552.9821823
547.4158969
540.9535621
533.4442331
524.7119506
514.5838092
502.7989923
489.1885698
473.3835319
455.084514
433.989864
409.7538811
382.0357157
350.563883
315.1668055
275.787748
232.5537967
185.7853983
136.3019242
85.50604605
39.03639689
591.57959
591.3212095
591.1418309
590.9442534
590.718482
590.466074
590.1893953
589.8823298
589.5365188
589.1465336
588.7078797
588.2151611
587.6615897
587.0395978
586.3394493
585.5506665
584.6618851
583.6588641
582.5266162
581.2483828
579.8008332
578.163419
576.3045498
574.1938505
571.7942875
569.0585252
565.9319574
562.3517325
558.239005
553.5000338
548.0169944
541.6494618
534.2564523
525.6434619
515.6399887
503.988052
490.6327661
474.9275573
456.7602906
435.8336234
411.7456672
384.1346434
352.723752
317.3216712
277.8458143
234.3779749
187.1835944
136.94134
85.39097373
38.08758019
591.580517
591.4088273
591.2609478
591.0828841
590.8697849
590.6273616
590.3607969
590.0581899
589.7118968
589.3208278
588.8831001
588.3935402
587.845608
587.2321824
586.5434108
585.7702526
584.9001045
583.920348
582.8158698
581.567205
580.1568126
578.5587248
576.7490473
574.6930513
572.3579876
569.6961175
566.6590815
563.1821067
559.1935001
554.5976226
549.2843285
543.1101949
535.937205
527.5714043
517.830831
506.4720295
493.4284809
478.0860321
460.2761842
439.6922972
415.888883
388.5094406
357.2315502
321.8522932
282.2254335
238.4096281
190.6643568
140.3116008
87.06829586
39.46809729
591.5894038
591.4123204
591.2496742
591.0524829
590.8540629
590.6313439
590.3685106
590.0814986
589.7565572
589.3863746
588.9713859
588.5084999
587.9903123
587.4085545
586.7549905
586.0182405
585.1884981
584.2515215
583.1936026
581.9978311
580.6455619
579.1137931
577.3777768
575.4071106
573.1681616
570.6201798
567.7139907
564.3914252
560.5801812
556.1947216
551.1213864
545.2344801
538.3843139
530.383231
521.0239689
510.0838717
497.3709056
482.522908
465.2344349
445.1294633
421.7555842
394.7232194
363.6745094
328.3309172
288.522494
244.3303052
196.2272486
145.1638721
89.80129612
40.70836192
591.67242
591.510369
591.371311
591.1930419
591.0129584
590.826015
590.5902118
590.3154685
590.0046927
589.6489064
589.2468438
588.7993324
588.2994604
587.7409973
587.115701
586.4144506
585.6260142
584.7372252
583.7343503
582.601609
581.3206818
579.8707818
578.2280545
576.3649983
574.2500416
571.8467786
569.1091703
565.9843897
562.4037777
558.2852818
553.5220257
547.9902175
541.5386263
533.9851277
525.1251259
514.7605465
502.5990804
488.4043244
471.7853124
452.3246687
429.5235343
402.9604655
372.2212607
336.952595
296.9246698
252.3284758
203.354569
150.5568792
93.20277422
42.27076583
591.7662294
591.6009598
591.4599807
591.2779716
591.0945651
590.9124911
590.6995229
590.4378903
590.1451734
589.8167832
589.4448448
589.0333693
588.575275
588.06155
587.4847211
586.8365657
586.1071525
585.2843974
584.3549754
583.3040945
582.1142885
580.7662997
579.2381472
577.5052606
575.5392135
573.3076627
570.7700084
567.8803267
564.5717902
560.7725987
556.3827684
551.2717956
545.2805819
538.2449537
529.9785521
520.2836802
508.8446736
495.4280469
479.6142399
460.9246221
438.8416809
412.8691743
382.5387078
347.3808995
307.0961708
261.82813
211.4742271
156.9737026
97.30572785
44.09125969
591.9076706
591.7505516
591.6225874
591.4571114
591.2911191
591.1272502
590.9400956
590.7136124
590.4431893
590.1289535
589.7844579
589.401961
588.9774198
588.5036815
587.9738245
587.3801548
586.7134088
585.9624583
585.1146637
584.1558286
583.069163
581.8363831
580.4372573
578.8497013
577.048744
575.0077428
572.6920189
570.0623832
567.0629253
563.6232614
559.6452836
555.005238
549.5415063
543.1042387
535.5099041
526.5538798
515.9722349
503.4361308
488.5213885
470.7111227
449.4440573
424.1530672
394.2924746
359.2841069
318.681181
272.4408753
220.6382765
164.3596183
102.0332981
46.21760234
592.061767
591.9042362
591.7784221
591.6152891
591.4547392
591.2978083
591.1248669
590.9191751
590.6742349
590.3953529
590.0858686
589.7446049
589.3668175
588.9460765
588.4759964
587.9495987
587.3584538
586.6923288
585.9392327
585.0855477
584.1156119
583.0120265
581.7556713
580.3270354
578.7038774
576.8661517
574.7862426
572.4354109
569.7670812
566.7130152
563.1820581
559.0551766
554.1677082
548.3658799
541.4640231
533.2820598
523.582339
512.0272233
498.1339191
481.3116726
460.943759
436.4046037
407.0571564
372.211836
331.2780472
284.0330203
230.608296
172.4338854
107.1673045
48.50491979
592.248922
592.0971445
591.9812505
591.8309668
591.6881942
591.5462253
591.388959
591.2146657
591.0024088
590.7562121
590.4788462
590.1751449
589.8425234
589.4747416
589.0657185
588.6092771
588.0979332
587.5223448
586.8711473
586.1310254
585.2866021
584.3202006
583.2143202
581.9506335
580.5080666
578.874858
577.0321749
574.9664323
572.6393583
569.9822478
566.917646
563.3293337
559.0596806
553.9648146
547.8676442
540.5364849
531.7752524
521.207209
508.327835
492.5044209
473.0548999
449.2823857
420.4601646
385.761062
344.5104161
296.300897
241.1998298
181.0237933
112.6749497
51.00479278
592.4482636
592.2976716
592.1843371
592.040395
591.9018823
591.7778291
591.6419046
591.4881175
591.3032826
591.0949017
590.8563929
590.5964555
590.3154477
590.0075871
589.667085
589.2886046
588.8656205
588.3896717
587.8499242
587.2329974
586.5238656
585.7042688
584.7546285
583.6594439
582.3988554
580.9607348
579.3464719
577.5548555
575.5677894
573.328787
570.7582174
567.7219583
564.0495426
559.5950491
554.200705
547.6550389
539.8299406
530.380197
518.6495113
503.8953739
485.3911831
462.3845686
434.0528762
399.4741661
357.8519073
308.659773
251.8542614
189.5479136
118.1023661
53.44489125
592.6705112
592.5243593
592.4218246
592.2872635
592.1644971
592.0562897
591.941323
591.8119274
591.6561163
591.4825136
591.2834817
591.068479
590.8396117
590.5923767
590.3219596
590.0240219
589.6930992
589.3215907
588.8994497
588.4137562
587.8484792
587.1834008
586.3932388
585.4621714
584.3749497
583.1211925
581.7057927
580.1482312
578.4593278
576.6206502
574.5468401
572.1096614
569.1396008
565.4679021
560.8886661
555.1592567
548.1632631
539.6124773
528.9255273
515.1966292
497.6188877
475.3424097
447.4538112
412.9555158
370.9316824
320.79668
262.3863603
197.9945502
123.5194092
55.94259766
592.8981175
592.7547766
592.6573465
592.5323582
592.4225092
592.3297373
592.2344414
592.1289619
592.0015073
591.8623676
591.7037067
591.5355619
591.361073
591.1770199
590.9796889
590.7659551
590.531575
590.2698226
589.972593
589.627259
589.2126062
588.7063585
588.0804146
587.3104897
586.3832459
585.2941044
584.0620628
582.7310117
581.346358
579.9019566
578.2946388
576.3449414
573.8661526
570.6674149
566.6319364
561.6112095
555.7940977
548.6342806
539.0895515
526.3733241
509.6547881
488.0151131
460.4714484
425.9301219
383.4047433
332.2315197
272.1995726
205.7030202
128.4240221
58.16288868
593.1420262
593.0017924
592.9106477
592.795412
592.698904
592.6227869
592.5478337
592.4670974
592.3682403
592.2633892
592.1447949
592.0229429
591.9022908
591.7809071
591.656433
591.5271891
591.3903445
591.2413594
591.0752425
590.8739055
590.6150688
590.2743531
589.8209485
589.2112396
588.4128038
587.4214278
586.2683323
585.0483921
583.8873907
582.8534694
581.8230278
580.5876509
578.9425746
576.597722
573.2637933
568.6212485
563.1509158
556.6802281
548.3403844
536.7994442
521.005143
500.0106658
472.7646255
438.1815626
395.1722159
343.0548863
281.5132436
213.028235
133.0953607
60.33841287
593.3888064
593.2513171
593.165686
593.0594197
592.9748591
592.9142137
592.8582392
592.8006303
592.7294908
592.6575858
592.5773794
592.5004095
592.4321878
592.3720439
592.3189727
592.2730375
592.232549
592.1979864
592.1641693
592.109389
592.0116741
591.8464681
591.5736041
591.1397832
590.4965903
589.631512
588.5964626
587.4842617
586.5100402
585.7584361
585.0386347
584.1619818
582.8370917
580.8623071
577.9145599
573.7210239
570.3161588
565.4260377
557.8293966
547.0231316
532.0073828
511.5202181
484.4554105
449.7038393
406.0986187
352.9017136
289.8804382
219.4966379
137.231675
62.22746814
593.6412813
593.5066781
593.4266611
593.3293634
593.2560532
593.2107992
593.1732872
593.1377128
593.0932299
593.0528439
593.0090658
592.9745125
592.9558465
592.9536031
592.9682133
593.0016704
593.0540393
593.1300838
593.2243292
593.3151992
593.3839802
593.3923508
593.2858327
592.9879815
592.4187033
591.5165846
590.3012186
589.0321535
588.3663988
588.2509881
588.3313694
588.2316083
587.7555624
586.7762583
584.1116226
578.1554688
575.1351835
571.9507213
565.7337571
556.1082772
541.9439748
521.9627268
495.2025673
460.4253827
416.4185104
362.3304678
297.9320763
225.803671
141.3123189
64.15572319
593.8934693
593.7612878
593.6862008
593.596822
593.5346629
593.5027432
593.4820571
593.4666824
593.4466459
593.4349823
593.4246251
593.4287061
593.4549901
593.5052024
593.5811049
593.6864319
593.823412
593.9999709
594.2125032
594.4458912
594.6879679
594.8925038
595.0101034
594.9635057
594.6357992
593.9027825
592.6916221
591.183827
590.3438833
590.2285085
590.4587907
590.5845823
590.3296196
589.4352322
587.5346514
584.3338679
582.3071365
579.3726158
573.883426
564.9636183
551.3519661
531.8440266
505.2479427
470.321713
425.8773068
370.9029817
305.2235678
231.3903071
144.8692268
65.7853607
594.1445413
594.0147548
593.9443936
593.8623218
593.8100398
593.7905843
593.7853673
593.788308
593.7902072
593.8040145
593.8237897
593.8621689
593.9278312
594.0237019
594.1526192
594.319795
594.5285791
594.7909362
595.0988653
595.4452617
595.8097661
596.151678
596.3947052
596.4695478
596.2511075
595.4664764
593.8195832
591.8369926
591.9598854
593.3324402
593.8055658
593.872559
593.7517475
593.2268585
592.0027831
589.5829787
587.1695321
584.4711802
580.1739801
572.346405
559.4925752
540.5449696
514.3027562
479.4858113
434.8482428
379.277683
312.5226921
237.1812172
148.5441966
67.46104704
594.3911285
594.2633131
594.197167
594.121564
594.0778795
594.069276
594.0772884
594.096152
594.1170164
594.1526591
594.1978622
594.2651154
594.3635278
594.4966921
594.6680801
594.8839284
595.1483447
595.4775198
595.8638291
596.3120397
596.8084534
597.3278038
597.8080978
598.1759851
598.3411871
597.7260443
596.1099058
592.8489073
593.4235294
594.0655059
595.3478246
596.1881467
596.3571256
596.068344
595.227294
593.5349673
591.9313364
589.9275754
586.30914
579.168877
566.857348
548.3626587
522.2915218
487.5851452
442.811893
386.7459245
319.0749197
242.3017516
151.9129751
69.05913437
594.6314255
594.505354
594.4430091
594.3729947
594.3368272
594.3377466
594.3573698
594.3899807
594.4265945
594.480503
594.54586
594.6361031
594.7603219
594.9219569
595.1245678
595.374206
595.6752254
596.0405055
596.4640949
596.9396903
597.4492569
597.9535525
598.3786854
598.6609306
598.6858531
598.1667741
596.8158805
595.1862026
595.6617608
597.4104805
598.3194903
598.8715326
599.1891977
599.4422105
598.8691613
597.340308
595.9791001
594.1399372
590.6174442
583.9028085
572.1461787
554.2105545
528.7533366
494.4685609
449.8652128
393.6432581
325.3214431
247.3660179
155.2863255
70.54637945
594.8635411
594.7388878
594.6796294
594.6141684
594.5841568
594.5928452
594.6218052
594.6655502
594.7144905
594.7823935
594.8629356
594.9701847
595.1128368
595.2937629
595.516108
595.7852289
596.1052563
596.48614
596.9272554
597.4163537
597.9444378
598.4695371
598.9460816
599.303527
599.4311299
599.2161422
598.6209405
597.7667332
597.693172
598.4090921
599.4350334
600.6712754
600.9783484
601.9669016
601.1902592
599.0266364
599.0451902
597.6282932
594.0938593
587.400404
575.9358659
558.395985
533.3658021
499.3895284
454.9324718
398.661483
329.9869664
251.0622628
157.8542907
71.71106562
595.0860102
594.9625466
594.9059983
594.8440504
594.8192736
594.8342621
594.8706766
594.9231283
594.9813637
595.0593422
595.150941
595.2698391
595.4241445
595.6161392
595.8482602
596.1248334
596.4486146
596.8276929
597.2603893
597.729113
598.2202123
598.7001897
599.1220909
599.4167846
599.5116271
599.3574177
598.9747096
598.6438978
599.0202512
600.0986802
601.2824137
602.7500656
602.687662
604.4539673
603.7521831
599.411008
600.0162608
599.3305388
595.6221715
588.7839359
577.4937758
560.2704077
535.6779212
502.1457485
458.0557801
402.0291495
333.2265863
253.7836566
159.8266249
72.57053209
595.2973951
595.1746082
595.1199304
595.0604573
595.0393348
595.0586233
595.1002482
595.1586129
595.2228552
595.3069507
595.405087
595.5301723
595.6896319
595.8850572
596.1180099
596.3915078
596.7073311
597.0699451
597.4791677
597.9178822
598.3699059
598.8178681
599.2293656
599.5595476
599.7740322
599.8595789
599.8819038
599.95898
600.3211039
601.0443634
601.8705497
602.8162256
603.0632522
603.7105458
603.6822765
601.4550583
600.9904811
599.3125068
595.164764
587.9637138
576.5357476
559.3676446
534.9248742
501.6339366
457.8339414
402.1165709
333.5289682
254.1685785
160.101082
72.69321612
595.4973175
595.3752813
595.3223089
595.2648622
595.2467988
595.2693632
595.3147237
595.37681
595.4450293
595.5324892
595.6335429
595.7604628
595.9200001
596.1129001
596.3398586
596.6026926
596.9026204
597.2398566
597.6146282
598.014913
598.4250264
598.8281359
599.2022568
599.5181611
599.7497162
599.8871239
599.9898921
600.1691817
600.5554135
601.2178332
602.0120302
602.7665665
603.1951224
603.4038882
602.9110228
601.3363837
599.8216286
597.3631377
592.7674878
585.0498752
573.1261276
555.6547082
531.1362809
497.9544835
454.4259597
399.0513113
330.9515397
252.2572838
158.8560135
72.14043911
595.6836954
595.5615543
595.5087903
595.4519112
595.4350298
595.4587383
595.5051842
595.5680423
595.637402
595.7248202
595.8248312
595.9495651
596.1047916
596.2903409
596.5059672
596.7524849
597.0301537
597.3373822
597.6719483
598.0278355
598.3908408
598.7471479
599.078059
599.3739303
599.6216531
599.8209983
600.020151
600.2795748
600.6429559
601.120211
601.6214778
602.0145895
602.133846
601.9248599
601.1875517
599.6491535
597.3797494
593.9292107
588.422786
579.8426228
567.101216
548.9632926
523.9919495
490.5768527
447.0666284
392.0816023
324.7671454
247.2932031
155.5366793
70.61074265
595.8590153
595.7374889
595.685752
595.6308947
595.6150095
595.6398805
595.6870477
595.7500979
595.8193424
595.9047817
596.0013468
596.1208052
596.2681747
596.4423245
596.642248
596.8678982
597.1186761
597.3924546
597.6853946
597.9915678
598.3024729
598.6062124
598.8877484
599.1403964
599.3584496
599.5354236
599.6994214
599.8795772
600.0935301
600.335532
600.5359608
600.57536
600.2882972
599.5618059
598.2361458
596.0684658
592.9834086
588.5920383
582.0697254
572.4299294
558.6499071
539.5820021
513.8700641
479.9836794
436.3704245
381.7991899
315.562918
239.9425562
150.6700329
68.36522872
596.0186856
595.8957954
595.8418792
595.7866809
595.7680449
595.7908002
595.8352983
595.8954308
595.96141
596.0417136
596.1325747
596.2452579
596.3832275
596.5442948
596.726732
596.9297713
597.1519849
597.3906301
597.6412103
597.8974238
598.1520502
598.3955922
598.61691
598.8093703
598.9639009
599.07675
599.1615123
599.2280219
599.2732539
599.2563909
599.1015076
598.70385
597.9138592
596.6163696
594.6741963
591.7425709
587.7059015
582.1271723
574.3001577
563.3327103
548.2595728
527.9889076
501.2730143
466.6843369
422.8515377
368.6955754
303.7721257
230.4382189
144.339406
65.44528138
596.1720905
596.0496217
595.996559
595.93903
595.9237765
595.94852
595.9922753
596.0509903
596.1144334
596.1848125
596.2681419
596.3722404
596.4977691
596.642268
596.8039411
596.9813887
597.1724149
597.3735235
597.5797555
597.7848299
597.9810389
598.1588419
598.3096197
598.4239814
598.4901373
598.5042252
598.4590477
598.3501162
598.1535883
597.8083254
597.2403806
596.3454177
594.9681003
592.9712482
590.1909231
586.3410857
581.259516
574.4494731
565.267864
552.8758592
536.3739063
514.7546378
486.8995496
451.5216952
407.4557029
353.8282555
290.4575103
219.711127
137.3065614
62.23242568
596.3024222
596.1774642
596.11954
596.0577095
596.0354118
596.0536867
596.0951127
596.1476766
596.2025017
596.2642009
596.342218
596.4398878
596.5550973
596.6852169
596.8282541
596.9822141
597.1440136
597.3094446
597.4728715
597.6275516
597.7650689
597.876091
597.9493001
597.9739916
597.9358481
597.8236516
597.6184017
597.3004012
596.8305148
596.1482725
595.1617594
593.7602162
591.7835201
589.0774721
585.4475999
580.658126
574.4235819
566.3023841
555.6823708
541.7928976
523.7894824
500.7549073
471.697597
435.5313253
391.2528037
338.2919393
276.621433
208.3705261
129.9769691
58.90633733
596.4328848
596.3095921
596.2533528
596.1966897
596.1784
596.2019649
596.2438844
596.2907832
596.3352622
596.3877211
596.4546091
596.5396219
596.6392483
596.7504122
596.8710244
596.9984139
597.1288378
597.2570457
597.3768095
597.480325
597.5584482
597.6001093
597.592526
597.521173
597.3689185
597.1157285
596.7345567
596.1904508
595.4357205
594.3989342
592.980205
591.0536315
588.4531922
585.0101152
580.5209282
574.7367454
567.3508128
557.9224041
545.8787563
530.5146519
511.0527733
486.6538761
456.4593445
419.5786681
375.2058847
323.0314494
263.1581393
197.2998976
122.8630466
55.70270853
596.5399908
596.4111665
596.346408
596.2793635
596.251115
596.2651067
596.2915838
596.315264
596.3550412
596.4084121
596.47538
596.5575709
596.6495967
596.749456
596.8547883
596.9623788
597.0675344
597.164461
597.245943
597.3034748
597.3265047
597.3027384
597.2166053
597.0513601
596.7837344
596.3880259
595.8295303
595.0624065
594.0272048
592.6421273
590.8071933
588.3751979
585.180147
581.0389533
575.7349397
569.0282276
560.5155058
549.8640475
536.5006751
519.7692534
498.9441426
473.2944206
442.0799499
404.5859798
360.2263688
308.9536873
250.8593001
187.1712421
116.3641131
52.78064493
596.6545537
596.5296041
596.4696113
596.4110615
596.3930045
596.4117684
596.4278187
596.4516762
596.4881108
596.5310449
596.5835453
596.6456624
596.7194449
596.7989288
596.8827179
596.9661075
597.0433375
597.1077239
597.1513329
597.1642305
597.1346731
597.0485877
596.8881818
596.6325337
596.2552893
595.7232423
594.9960339
594.0185359
592.7228792
591.020509
588.8006637
585.9090373
582.1646841
577.3791851
571.3128914
563.7095572
554.2182518
542.4604832
527.900075
509.9677245
487.9578205
461.2397374
429.1779419
391.2075904
346.9179663
296.3683399
239.9442385
178.3404909
110.679322
50.21750874
596.7431023
596.6052303
596.5249276
596.4522547
596.4189815
596.4069933
596.4032301
596.4240542
596.4575946
596.4991867
596.5521451
596.6164087
596.6887775
596.76679
596.8433039
596.9148971
596.9751959
597.0175059
597.0331836
597.0115692
596.9399929
596.8024956
596.5793708
596.246253
595.773407
595.1231316
594.2477219
593.088244
591.5641818
589.589033
587.0268737
583.7325402
579.5255964
574.1731861
567.4654334
559.1019626
548.8290965
536.1397798
520.5908592
501.64642
478.6775304
451.1099615
418.3966586
380.0972077
335.9110353
285.8751451
230.6027275
171.0373224
105.9631258
48.06599522
596.8600299
596.7259308
596.6605579
596.6083578
596.5690642
596.5475584
596.5483201
596.5598878
596.5791183
596.6088386
596.6496882
596.699395
596.755416
596.8144706
596.8722736
596.9229949
596.9616768
596.9804262
596.969583
596.9164644
596.8085961
596.6269581
596.3522143
595.9551031
595.4050947
594.6566808
593.6637166
592.352858
590.6520244
588.4491435
585.6261256
582.0113607
577.4380393
571.6611849
564.4651276
555.5284621
544.6896955
531.2613153
514.9223811
495.2200551
471.5243034
443.33408
410.1405379
371.6406458
327.5672949
278.0397227
223.334178
164.7027743
102.3158636
46.37122954
596.9461126
596.7290588
596.6343759
596.5659302
596.5100971
596.4788417
596.4730027
596.4857775
596.5119601
596.5494391
596.5965775
596.6513836
596.710967
596.7717909
596.8291388
596.8775095
596.9102539
596.9193338
596.8953945
596.8262266
596.6965625
596.4882945
596.1774677
595.7374902
595.1318578
594.3178802
593.2383501
591.8267809
589.9974584
587.6405644
584.6267741
580.7875281
575.9464703
569.8683209
562.3213973
552.9960766
541.7388493
527.8101865
510.946835
490.7120679
466.5403917
437.9257201
404.4452635
365.8052735
321.8436341
272.6467701
218.5199069
160.3346267
100.1195257
44.69662552
597.1360055
596.8326484
596.7809857
596.7430846
596.6626333
596.6031549
596.583123
596.5840464
596.5967465
596.6213
596.6570706
596.7013433
596.7508967
596.8020922
596.8499775
596.8888983
596.9122472
596.9115906
596.8768951
596.79563
596.6521621
596.427726
596.0988083
595.6366275
595.0053347
594.1572934
593.0370737
591.5755844
589.6847968
587.2492154
584.1432105
580.1945757
575.2227534
568.9845217
561.2709298
551.7747403
540.2070575
526.1035836
509.0230324
488.5277686
464.1170208
435.3066278
401.6905295
363.0002571
319.1180056
270.185967
216.6001904
159.3477854
100.1672792
45.61792455
591.5491906
591.2652951
591.0702079
590.9139739
590.6854326
590.4288164
590.1566536
589.8530232
589.506496
589.1138322
588.6713795
588.1737009
587.6136082
586.9832382
586.2737617
585.4752253
584.5751612
583.5607098
582.4153543
581.1226462
579.6600649
578.0060236
576.1305143
574.0029373
571.5840621
568.8265758
565.6791731
562.0732505
557.9361714
553.1640139
547.6493621
541.2405892
533.7975799
525.0916554
515.0613318
503.3936346
489.8349559
474.2696748
456.1782524
435.2458714
411.117506
383.4880985
352.0979795
316.7521259
277.3537561
234.0105407
187.0714014
137.8073634
85.83754472
38.3906759
591.4134978
591.2003523
590.9898987
590.7550081
590.5617036
590.3406477
590.0804213
589.7879876
589.4574472
589.0809238
588.6536635
588.170914
587.6263941
587.0123136
586.3194909
585.5377819
584.6545471
583.6577765
582.5317092
581.2596822
579.8200876
578.1891081
576.3407214
574.2430899
571.8567846
569.1402498
566.0388052
562.4882695
558.4144317
553.7197441
548.2886316
541.9865859
534.6565361
526.1204561
516.19659
504.6494967
491.2738585
475.8396428
457.9335357
437.1698509
413.1944282
385.6902059
354.3870017
319.0424648
279.538939
235.9066042
188.3860668
137.1600409
87.78128675
38.21408791
591.4136425
591.2795707
591.1168373
590.9018678
590.699898
590.4926117
590.2508748
589.9638583
589.6305193
589.2515863
588.824882
588.3451209
587.8050755
587.1984687
586.5146258
585.7458419
584.8791421
583.9027193
582.8019201
581.5563554
580.1483725
578.5570204
576.7518673
574.7085937
572.3848854
569.74123
566.7243761
563.2741918
559.3169944
554.7608685
549.4882891
543.3819939
536.2679575
527.9649145
518.2873914
507.0120096
493.9424215
478.792885
461.200091
440.7399824
417.0524758
389.7988611
358.6707889
323.3555224
283.7014377
239.7167656
191.7149197
140.0803723
90.90524832
39.99376623
591.4317986
591.3023695
591.1453284
590.9188208
590.665918
590.4577057
590.2419855
589.9778629
589.6651533
589.3078318
588.9060023
588.454414
587.9454872
587.3750111
586.7303164
586.0001128
585.1753509
584.2436109
583.1913007
582.0013046
580.6551797
579.1316911
577.4068108
575.4500725
573.2288039
570.7023846
567.8239197
564.535006
560.7684081
556.4357355
551.4311651
545.6257809
538.8829369
531.0041416
521.7875665
511.0014018
498.4247235
483.81588
466.7819616
446.8882645
423.7313841
396.9442067
366.1177775
330.9009846
291.057396
246.5802059
198.0370691
143.4478187
92.92326703
41.37539107
591.5141594
591.405939
591.2746712
591.0888052
590.8728283
590.6476781
590.4481389
590.209748
589.9150039
589.5693257
589.1808524
588.7430425
588.2556002
587.7041293
587.0863486
586.3919382
585.6095336
584.7264474
583.7297473
582.6039481
581.3313234
579.8909252
578.2598102
576.4104523
574.3132596
571.9314628
569.2226766
566.1346049
562.6033438
558.5481367
553.8647919
548.4347134
542.1093447
534.7040043
526.0015247
515.7668181
503.8613435
489.962978
473.661045
454.4768447
431.9766532
405.7586011
375.3335882
340.2631933
300.2058623
255.0399804
205.7416284
148.6554205
95.51022617
42.89606243
591.6097916
591.5015109
591.3717891
591.1910985
590.9796245
590.753835
590.5258151
590.3102336
590.0503335
589.7314271
589.3707976
588.9736122
588.5269418
588.022901
587.454662
586.8137313
586.0906658
585.274083
584.3517106
583.3090547
582.128945
580.7919169
579.2767109
577.5584841
575.6121603
573.4039823
570.897895
568.0488238
564.7964682
561.0702434
556.7634794
551.7828477
545.955669
539.1205089
531.0424391
521.5043361
510.3606271
497.2820678
481.8351746
463.50445
441.8230065
416.3495627
386.4549126
351.6118036
311.337815
265.2902228
214.6538026
155.2561604
99.95684825
44.95725025
591.7513906
591.6511203
591.5355772
591.3761651
591.1941937
590.9979453
590.7867803
590.5639969
590.3252052
590.0432702
589.7116532
589.3405378
588.9271779
588.4636691
587.9429684
587.3575538
586.6984945
585.9544701
585.1139278
584.1630683
583.0861755
581.8649044
580.479448
578.9077491
577.1279266
575.1124796
572.8306803
570.2463141
567.3081514
563.9493118
560.0676166
555.5931345
550.3394118
544.1428888
536.7619943
528.0392762
517.732696
505.5757822
491.0956389
473.7261975
452.956683
428.3367785
399.0791028
364.5160174
324.0502678
277.1976649
224.9443103
163.001235
105.1809526
47.37825223
591.9061303
591.8063953
591.6927649
591.5379389
591.3627235
591.1808502
590.9838572
590.7731143
590.5445652
590.2951137
590.0079602
589.6814745
589.3152393
588.9048168
588.4442236
587.9268568
587.344433
586.6869751
585.9425249
585.0982619
584.1390811
583.0476622
581.805788
580.3933963
578.7915889
576.9805614
574.9370775
572.6342974
570.0304003
567.0613315
563.6445023
559.7123866
555.0831957
549.5478625
542.8527791
534.9944333
525.5957012
514.4521416
501.0440548
484.7387735
464.9852266
441.2693244
412.7103712
378.4886997
337.8328186
290.1575273
236.1263335
171.4835439
110.8958558
49.9956528
592.0934405
591.9991201
591.8948882
591.7546503
591.5989916
591.4342524
591.2653865
591.080886
590.8709409
590.64368
590.394401
590.1112875
589.7913359
589.433455
589.0339895
588.5869294
588.0847277
587.5184515
586.8773873
586.1483973
585.3161119
584.3636866
583.2734296
582.0267862
580.607003
579.0007988
577.1963278
575.1802584
572.9170274
570.3541365
567.4225708
564.0591626
560.1108229
555.3604643
549.5897163
542.5660641
534.08059
523.9388493
511.5914341
496.3662889
477.6453947
454.8550128
426.9902993
393.1109813
352.2573232
303.7096646
247.8035572
180.5029949
117.0452586
52.85401158
592.2930358
592.1999366
592.0985436
591.9653071
591.8155245
591.6703996
591.5213953
591.3611625
591.1785731
590.9734694
590.7646222
590.5308367
590.264507
589.9665702
589.6358999
589.2676085
588.8548406
588.3894799
587.8613222
587.2575845
586.562876
585.7595302
584.8264819
583.7463219
582.5037523
581.0957051
579.5207039
577.7792954
575.8589833
573.7202789
571.2913913
568.4914415
565.1378668
561.0208791
555.9463227
549.7383283
542.3851154
533.4816482
522.3324981
508.2175147
490.5295018
468.6152887
441.3701591
407.7509142
366.6772395
317.221087
259.3583433
189.4449806
123.1008452
55.63582001
592.5156344
592.4271454
592.3354433
592.2123329
592.07826
591.9501044
591.8222935
591.687324
591.5334475
591.3603601
591.1903174
591.0026614
590.789375
590.5523675
590.2921283
590.0051389
589.6856626
589.3266186
588.9184781
588.4480054
587.8972518
587.2483705
586.4786219
585.5699989
584.500988
583.2676458
581.8855092
580.3729354
578.7540697
577.0231289
575.1012207
572.9000406
570.2623971
566.9557913
562.735322
557.3872486
550.9523668
543.0267097
532.9925309
519.9699672
503.2771614
482.1319358
455.4172717
422.0086365
380.7218745
330.4098732
270.7260856
198.2922753
129.1387347
58.46199026
592.7438677
592.6578648
592.5708161
592.4576804
592.3364087
592.2243135
592.1163976
592.00562
591.880242
591.7402023
591.6095986
591.4690462
591.3108723
591.1376149
590.9510654
590.749268
590.5279838
590.2814653
590.0008948
589.6711204
589.2742623
588.7898604
588.1882996
587.4464164
586.5391637
585.4560813
584.2341312
582.933592
581.6141426
580.2950093
578.8497077
577.1184752
574.8774427
571.967533
568.1984525
563.4812375
558.6427697
552.3638106
543.5314134
531.5124026
515.726412
495.257783
468.9588183
435.5809039
393.8687898
342.5647531
281.1951388
206.3123844
134.5686628
60.97505254
592.9877143
592.9048382
592.8235114
592.7206944
592.6126452
592.5177716
592.4301943
592.3441882
592.2479742
592.1416837
592.0506114
591.9565647
591.8526925
591.7426201
591.6296434
591.5135932
591.3921669
591.2614426
591.1129037
590.9312938
590.6987099
590.389707
589.9675993
589.3865592
588.6085872
587.6096806
586.4129702
585.1776861
584.0806318
583.1973359
582.3680519
581.3604955
579.9681923
577.8824378
574.5746323
570.4651276
565.6276478
560.5650753
553.2729746
542.4934506
527.6474497
507.8302974
481.8827237
448.5071509
406.352215
354.0581671
291.0703077
213.8339103
139.6050943
63.28392976
593.2345283
593.154453
593.0784646
592.9847468
592.8888353
592.8092179
592.7410994
592.6783983
592.6097384
592.5360084
592.4832432
592.4341361
592.3829864
592.3346537
592.2939545
592.2626216
592.2406256
592.2263796
592.2113094
592.1834474
592.1249651
592.0050312
591.7777823
591.3853821
590.7592969
589.873501
588.7251267
587.505174
586.5650483
585.997031
585.5294463
584.8617007
583.8222112
582.0647212
577.59921
573.2066348
574.991927
569.5118197
562.3271897
552.6646748
538.782971
519.5560616
493.9381637
460.4107743
417.6775695
364.307733
299.7828174
220.4191535
143.9889532
65.29741432
593.4870888
593.409836
593.3391357