/*--------------------------------*- C++ -*----------------------------------*\
| =========                 |                                                 |
| \\      /  F ield         | OpenFOAM: The Open Source CFD Toolbox           |
|  \\    /   O peration     | Version:  2.2.1                                 |
|   \\  /    A nd           | Web:      www.OpenFOAM.org                      |
|    \\/     M anipulation  |                                                 |
\*---------------------------------------------------------------------------*/
FoamFile
{
    version     2.0;
    format      ascii;
    class       surfaceScalarField;
    location    "6";
    object      phi;
}
// * * * * * * * * * * * * * * * * * * * * * * * * * * * * * * * * * * * * * //

dimensions      [0 3 -1 0 0 0 0];

internalField   nonuniform List<scalar> 
265716
(
38.35029216
-1.274428959
-0.8309836649
-41.88298907
2.907670654
2.730439093
39.77419618
-0.8982339513
-0.1502312156
-0.07222297301
-0.3032157003
40.03363134
-0.1413060928
0.1181738709
-0.07986780403
-0.1564349545
40.09216448
0.01848076374
0.06103867141
-0.05815898028
-0.0798933742
40.11938818
0.03337166743
0.04058973117
-0.0476281151
-0.0535567792
40.13673804
0.03314563826
0.03662833139
-0.04198346683
-0.04514006347
40.15084532
0.0319366922
0.03423299307
-0.0386382225
-0.04163844314
40.1633161
0.03063410867
0.03228004143
-0.03605498155
-0.03932955606
40.17474954
0.02911801504
0.03047571719
-0.03367221272
-0.03735464757
40.18541327
0.02750948318
0.02891967882
-0.03148332604
-0.03560914077
40.1954964
0.0258782723
0.02765003652
-0.02951826329
-0.03409283655
40.20519833
0.02421117874
0.02667885584
-0.02779084829
-0.03280061805
40.21465617
0.02245457437
0.02596942032
-0.02623243381
-0.03164902292
40.2238481
0.02057232484
0.02548665912
-0.02475494032
-0.03049539248
40.23284156
0.0185379283
0.02531060635
-0.02335964368
-0.02948194246
40.24167981
0.01638508857
0.0254848045
-0.0220940893
-0.02861340107
40.25036295
0.01413942989
0.02597416544
-0.02090640247
-0.02788988715
40.25865666
0.01170115972
0.02683530648
-0.01966046324
-0.02716898137
40.26656719
0.009078448208
0.02800881615
-0.01831579169
-0.02668151132
40.27371342
0.006380573268
0.02977501422
-0.01698213604
-0.02631879443
40.27997232
0.0036846258
0.03183316029
-0.01563294359
-0.0261431766
40.28476634
0.001070757868
0.03478892596
-0.01457637469
-0.02607633701
40.2875423
-0.001497233087
0.03851693578
-0.01361229855
-0.02618286387
40.28749464
-0.004001886561
0.04292029522
-0.01250533442
-0.02636448769
40.28320443
-0.006570344958
0.04913277536
-0.011457479
-0.02681453239
40.27454245
-0.008840269976
0.05570017968
-0.01047895963
-0.0277183613
40.26068427
-0.01088222849
0.06271329741
-0.009759969072
-0.02821326801
40.24077453
-0.01300120794
0.07155732061
-0.008952396849
-0.02969386005
40.21562335
-0.01513782524
0.07982553323
-0.009095028639
-0.03044183812
40.18864771
-0.01635754629
0.08696709261
-0.01196730041
-0.03166549529
40.16646144
-0.01458994137
0.0979702428
-0.02649921549
-0.03469471254
40.1630708
-0.007393244728
0.1113472696
-0.05890292474
-0.04166047511
40.1980652
0.005281743956
0.120197353
-0.1100042106
-0.05047178026
40.24792041
0.003900511602
0.1314734448
-0.1303031262
-0.05492713107
40.2489432
-0.0396171467
0.1013120112
-0.03766369844
-0.02505508386
40.14137318
-0.06166754525
0.07262991519
0.03026290267
0.06634397873
39.753884
-0.1021421228
0.07058083155
0.135420762
0.2836288841
39.46219201
-0.1456453947
0.06566798774
0.1949161993
0.1767518743
39.32101322
-0.1450609231
0.09512416292
0.1348781513
0.0562351508
39.25939789
-0.1493223548
0.1200011238
0.09601783036
-0.005084323824
39.2304497
-0.1542445733
0.1429010968
0.06696151246
-0.02667305595
39.21322587
-0.1578910094
0.1593259837
0.04904377954
-0.03325794157
39.1974569
-0.1625319092
0.1716577615
0.041457842
-0.03481757784
39.17898956
-0.1672621929
0.1794728708
0.04057599909
-0.03432239541
39.15907583
-0.1719376791
0.1855092259
0.04076177102
-0.03442319132
39.13625901
-0.1747858779
0.1872621683
0.04255681101
-0.03222038358
39.12776244
-0.1656808481
0.1741103534
0.03796683272
-0.03790237582
38.95469489
-0.01136937832
0.1108524461
0.07458480441
-0.001000356073
37.99686436
0.7456913182
0.3313770514
-0.0275068831
-0.09173210045
1.112919178
0.9272248791
40.06488043
-2.046390065
-2.061769085
44.83720706
-0.2640612455
-2.108918801
-47.99020041
4.251544622
43.17188895
0.2840767362
1.567642152
-1.084634585
43.06635234
0.02787584294
0.09686369377
-0.1605088541
43.08243831
0.03482468173
0.06611341022
-0.0985431093
43.10481245
0.04014764318
0.05227436629
-0.08142429066
43.12078692
0.04233759543
0.05277763859
-0.07794382809
43.13387151
0.04283240634
0.05386850635
-0.07784858092
43.14559265
0.04227117102
0.0549121129
-0.07827002935
43.15642292
0.04097148352
0.05581753377
-0.07850104462
43.16657729
0.03921624827
0.05651988031
-0.07838070098
43.17623757
0.03711734366
0.05711050027
-0.07800960385
43.185575
0.0346592845
0.05765963364
-0.07744481622
43.19476084
0.03179241839
0.05819045963
-0.07671386648
43.20396607
0.02849653337
0.05873629114
-0.07586532173
43.21334986
0.02477817077
0.05936085762
-0.07498459714
43.22295902
0.02068627872
0.06016905549
-0.07407897037
43.23296028
0.01627586388
0.06103611315
-0.07317351416
43.24313258
0.01157445023
0.0621167047
-0.07216181203
43.25331674
0.006687306321
0.06347893533
-0.07127164766
43.26331584
0.001746981721
0.06498957357
-0.07035454073
43.27273841
-0.003354975428
0.06730563191
-0.06968826882
43.28127082
-0.008280498794
0.06997700913
-0.06915757469
43.28811859
-0.01309175264
0.07350108121
-0.06875407283
43.29213142
-0.01752498656
0.07801495514
-0.06850419815
43.292721
-0.02158238588
0.08287300628
-0.06845052871
43.28822404
-0.02522607306
0.08977869127
-0.06889570008
43.27894727
-0.02848398975
0.09583075194
-0.06895258874
43.26309325
-0.03177125625
0.1050784407
-0.07045449974
43.24246275
-0.03549879136
0.1116400415
-0.07064896544
43.21659137
-0.04051472749
0.1221159308
-0.07208699467
43.1920742
-0.04718008068
0.1299396729
-0.07283262505
43.17276452
-0.05720959035
0.1428579591
-0.07373218362
43.17095264
-0.06874654509
0.1510740002
-0.07523551234
43.18376674
-0.08498212235
0.1488444665
-0.07277692899
43.18985942
-0.09963618691
0.10876814
-0.05484301807
43.14162192
-0.1163706878
0.06856996026
0.03436928776
41.99413248
-0.1335267676
0.05811323454
1.120759773
41.47741928
-0.1495676849
0.05275907035
0.4678755197
41.28816104
-0.1687566217
0.07910951134
0.1338425425
41.23277421
-0.1896165936
0.09665117737
-0.0009719013111
41.21634065
-0.2100374606
0.1126168272
-0.04039261614
41.20653347
-0.2240694053
0.1238627046
-0.04787909927
41.1952384
-0.2340821467
0.1307803997
-0.04793724765
41.18072607
-0.2411515325
0.134942341
-0.04654268318
41.16479294
-0.2473431548
0.1372674748
-0.04593133815
41.14623029
-0.2519751369
0.1395908408
-0.04384150907
41.16197012
-0.2542841372
0.121559227
-0.04869860999
41.33677649
-0.2659822472
0.09039542524
-0.01059126432
44.18193227
-0.5587887345
-1.403735664
-0.1369412848
0.0135112178
2.289732907
47.02537845
-4.033771078
47.43219967
-0.009829294872
-2.452787848
-49.32565092
4.092007351
45.07195313
0.03123203076
4.156023671
-1.542932265
48.84488649
-0.1474136311
-3.82221582
0.2245721494
48.81241107
-0.0261766046
-0.05186009391
0.1453370174
48.78450933
0.02750689438
-0.003524907628
0.04406762184
48.78267552
0.03456168651
0.02966002218
-0.02005004837
48.79369988
0.03480401119
0.04656875908
-0.04956445809
48.80869272
0.0335438083
0.05390074079
-0.06016594902
48.82408136
0.03108529781
0.05692704285
-0.06242919729
48.8391524
0.02791850595
0.0584166251
-0.06218961394
48.85384182
0.02427674515
0.05951340414
-0.06136188895
48.86824389
0.02014162134
0.0605710597
-0.06045511341
48.88255691
0.01535061752
0.06172152651
-0.05959235127
48.89692171
0.009818272408
0.06312268959
-0.05880883516
48.91159127
0.003484533653
0.06473517052
-0.05811066571
48.9264956
-0.003317836754
0.06662270967
-0.0575224999
48.9417626
-0.01050501778
0.06860068949
-0.05708634576
48.95733156
-0.01840752965
0.07116465387
-0.05675118194
48.97328008
-0.02678429203
0.07399819224
-0.05647461213
48.98912407
-0.03542953294
0.07758477429
-0.05625174507
49.00444286
-0.04409975696
0.08165877838
-0.05623223052
49.01886687
-0.0525582762
0.08634027903
-0.05648600951
49.03151114
-0.06084462238
0.09197623238
-0.05686713897
49.04114899
-0.06814888315
0.09835331395
-0.05736690547
49.04698899
-0.07487152402
0.1055611921
-0.05811180385
49.04758112
-0.08055155575
0.1138787883
-0.05914540795
49.04210374
-0.08598066281
0.1233442165
-0.06037028616
49.02973188
-0.09045397909
0.1328015114
-0.06174720643
49.01048404
-0.09571261021
0.1427944201
-0.06333291834
48.98553745
-0.1025035469
0.1515196178
-0.064584359
48.95803452
-0.1118983334
0.1580319184
-0.06581100354
48.93222118
-0.1249614158
0.1592268356
-0.06566252816
48.91635527
-0.1415428854
0.1539341219
-0.06527326927
48.9160279
-0.1632788079
0.138840075
-0.06021749525
48.93279488
-0.1866166914
0.1153671736
-0.04515583603
48.93762736
-0.2162829629
0.05490850958
0.04016943492
47.94233892
-0.2408270858
-0.05662430083
1.159211626
47.53606362
-0.2663001915
0.03169218414
0.4913140017
47.40261962
-0.298464551
0.1122045269
0.1509452435
47.37439841
-0.3313427615
0.1557565697
0.01418836478
47.37083264
-0.3587095698
0.1794559194
-0.02722056522
47.36688391
-0.3798639195
0.1958485065
-0.03610802425
47.35805527
-0.3956051753
0.2080681045
-0.03771918244
47.34465381
-0.4076915182
0.216974
-0.03703562086
47.33027789
-0.4195323467
0.2248899547
-0.03832808675
47.30285726
-0.4243898044
0.2357922814
-0.03596080494
47.24568448
-0.3770087736
0.2283789269
-0.04848572786
42.44339476
-0.2204725543
4.760816662
-0.004040625657
46.42998949
-0.3882243116
-4.043388982
-0.1137709669
-0.3450201396
2.620068154
48.30582549
-4.137373028
47.85962984
0.004184517393
-2.521702644
-49.37251646
4.02057567
45.07465604
0.009541123354
4.226821017
-1.420156149
51.96635369
0.009053861543
-7.809908614
0.7617436744
52.37859243
0.01469692243
-0.9655199537
0.512407865
52.26478016
0.02613427491
-0.1029362545
0.2181213405
52.23911907
0.03030753463
-0.005631536846
0.03554699897
52.24260291
0.02909291725
0.03796553689
-0.03573807024
52.25586064
0.02686132943
0.0533465759
-0.05992158912
52.27103948
0.02370575076
0.05977674803
-0.0675758142
52.28567908
0.01962081928
0.06277714947
-0.06911880028
52.29977526
0.01472483846
0.06446499388
-0.06900901467
52.31361709
0.009098210775
0.06580355162
-0.06860167907
52.32730899
0.002707607085
0.06705945286
-0.06810805452
52.34139021
-0.005029834148
0.06823750768
-0.06747029265
52.35601853
-0.01380126084
0.06952474689
-0.06686697241
52.37135645
-0.02334655213
0.07103251877
-0.06634138172
52.38761821
-0.03373473409
0.07279276299
-0.06582450843
52.40470887
-0.04491631688
0.07476329441
-0.06534482744
52.42256815
-0.05670819897
0.07711430232
-0.06504937888
52.44095443
-0.06887104377
0.07996804617
-0.06491247609
52.4593397
-0.08107214532
0.0834676118
-0.06488019696
52.47716344
-0.09286800012
0.08754935278
-0.06506303694
52.49338388
-0.1041470403
0.09246442439
-0.06538224409
52.50697475
-0.1140447075
0.09827416273
-0.06596903904
52.51675242
-0.1230655863
0.1052301079
-0.06681377297
52.5210702
-0.1301081863
0.1131127146
-0.06787399844
52.51867707
-0.1364650206
0.1221127736
-0.06923565551
52.50862131
-0.1412880675
0.131493762
-0.07060431259
52.49086014
-0.1464536277
0.1407443151
-0.0722427508
52.4661285
-0.1532121508
0.1489783366
-0.07353821
52.43808904
-0.1623835375
0.1527409734
-0.07421720856
52.40885846
-0.1722839069
0.1500103027
-0.07345839652
52.39185036
-0.191843262
0.138230223
-0.07092333699
52.38861512
-0.2127592069
0.1146237176
-0.06190965324
52.39506448
-0.2371918731
0.07391719762
-0.02979302595
52.36878056
-0.2666982903
-0.007766564438
0.08446423457
52.22183691
-0.2942960093
-0.1766009576
0.3770117616
52.14217983
-0.3254781568
-0.08146722337
0.2203006509
52.12358902
-0.3619674895
0.01375755135
0.06833378983
52.13334402
-0.3998688561
0.05989746628
-0.00112849901
52.14753328
-0.4320876854
0.08166421904
-0.02247819758
52.15284329
-0.4541938726
0.09395940181
-0.02494199313
52.15118536
-0.472261785
0.1023037281
-0.02399207824
52.14494207
-0.487520239
0.108556388
-0.02248731854
52.13516
-0.500937911
0.1138836241
-0.02269900532
52.12737017
-0.513397111
0.1168065893
-0.02001257623
51.38283511
-0.5133952678
0.9130017491
-0.03208415237
42.44035368
-0.4707320973
9.180480238
0.0122572846
46.74569366
-0.430487061
-4.160877565
-0.1022011044
-0.4152413673
2.648480639
48.3192617
-4.151827677
47.90798214
0.00337232373
-2.523525529
-49.38685622
4.003212041
45.06903602
0.006949406565
4.229546018
-1.38800802
51.98396813
0.01282315245
-8.007511747
1.088810539
53.06976397
0.01703780952
-1.823419278
0.7352827212
53.8450253
0.02099004186
-1.092715622
0.3225987205
53.81383561
0.02305257683
-0.03453573537
0.07298058499
53.81670277
0.02164710832
0.02923183079
-0.02465295755
53.82942838
0.0184668259
0.04990396755
-0.05423484129
53.84556615
0.01427826663
0.05673631851
-0.06344635896
53.86189104
0.009250300919
0.05918111399
-0.06513521078
53.87806129
0.003151147782
0.06012248426
-0.06471875924
53.8941916
-0.003716682768
0.06082667168
-0.06414177403
53.91038407
-0.01152740182
0.06153121889
-0.06348835722
53.92666374
-0.02080743098
0.06236967593
-0.062871395
53.94321631
-0.03145058248
0.06334914955
-0.06225205112
53.96038159
-0.04340975546
0.06455070175
-0.06165242165
53.97835351
-0.05663935932
0.0660743636
-0.06114132695
53.99728246
-0.07104446543
0.06791315772
-0.06071362798
54.01722431
-0.08641893023
0.07017321135
-0.06040402397
54.03805631
-0.1024466426
0.07295084629
-0.06020694057
54.05940406
-0.1186262554
0.07630491669
-0.06009826306
54.08075461
-0.1344085696
0.08044643954
-0.06025614924
54.10090715
-0.1490902222
0.08540593045
-0.06061513512
54.11876207
-0.1620812546
0.09133897374
-0.06115728613
54.13264196
-0.1734035057
0.09855424874
-0.06209636486
54.14110505
-0.1819521852
0.1066312795
-0.06325065598
54.14182679
-0.1884931384
0.1160512868
-0.06474537246
54.13418413
-0.1931145304
0.1254725912
-0.06600412604
54.11735241
-0.1965910195
0.134865672
-0.06789670936
54.09346817
-0.2012715174
0.1409318368
-0.06898902483
54.06533364
-0.2087970225
0.1434865502
-0.06894010358
54.04221107
-0.219831797
0.1383954067
-0.0677265987
54.02563771
-0.233655409
0.1230562743
-0.06467279581
54.02533508
-0.2512434051
0.09579045838
-0.05700548208
54.04312276
-0.273067525
0.05648684313
-0.03840068103
54.06268837
-0.299683168
0.0002508779337
0.01316565112
54.06701328
-0.3287484824
-0.06765158173
0.09777705707
54.08161006
-0.3616536925
-0.04459054003
0.06616583097
54.10614548
-0.3980229881
-0.006872051623
0.0183898346
54.13351288
-0.4362553263
0.01487535134
-0.005860735545
54.15182481
-0.4681720167
0.03116096663
-0.01339180615
54.16554924
-0.4995026942
0.04456533789
-0.01298490652
54.1698318
-0.5216635691
0.0563865896
-0.01127160828
54.16779689
-0.5409212851
0.06460690215
-0.009175158888
54.16650294
-0.5639001133
0.07424309986
-0.009992090803
53.20607185
-0.5689004019
1.021683101
-0.00575235126
51.61981562
-0.5643517635
1.654654688
-0.01744580508
42.458544
-0.5140672558
9.175117993
0.02948563943
46.77367396
-0.4586736744
-4.19946031
-0.0874846473
-0.4410974451
2.60490638
48.34918194
-4.154558486
47.91551781
0.001988230831
-2.523561516
-49.39009047
3.999518518
45.07024236
0.004196900458
4.228258206
-1.38023006
51.92438186
0.008092768466
-8.085485476
1.236076554
52.99657521
0.010693754
-1.898901373
0.8330522571
54.6955367
0.01293175494
-2.057183261
0.3662802392
55.09284535
0.01432293892
-0.4745082753
0.08592946975
55.099435
0.01404477359
0.02316123165
-0.02214831565
55.11202
0.01086417274
0.04877169261
-0.05375378086
55.12716659
0.006025578059
0.05692127101
-0.06381489145
55.14165846
0.0005576963821
0.06010801224
-0.06590696199
55.15554766
-0.0067514036
0.06166326503
-0.06564957235
55.16922257
-0.01503966412
0.06271732203
-0.06506887089
55.18316173
-0.0247004761
0.06370322892
-0.06446890673
55.19745
-0.03595442969
0.06470649272
-0.06384732419
55.21235763
-0.04891449591
0.0657872586
-0.06323052649
55.22817004
-0.06360212888
0.06704939185
-0.06266898722
55.24513284
-0.07999687072
0.06857639947
-0.06218125635
55.26345522
-0.09799141079
0.07037118933
-0.06174621603
55.28332445
-0.1173521687
0.0724849981
-0.06142059892
55.30473406
-0.1376905753
0.07504379159
-0.0612090873
55.32745201
-0.1584046092
0.07813934484
-0.06107856845
55.35093448
-0.1787508487
0.08199673115
-0.06113658184
55.37424975
-0.1976686433
0.08675852165
-0.06149516432
55.39610125
-0.2145712493
0.09268877204
-0.0620502049
55.41390747
-0.2281050845
0.09988801335
-0.06299279983
55.42620449
-0.2379769446
0.1078416317
-0.06411420024
55.42971412
-0.244225097
0.1176906622
-0.06546884087
55.42365912
-0.2469505064
0.127118394
-0.06722775589
55.50897633
-0.2483695872
0.03512927631
-0.06866866208
55.48487519
-0.2504621279
0.1430819208
-0.06979125102
55.23633025
-0.252161642
0.36166971
-0.06976222967
55.06711346
-0.2560839645
0.2731438317
-0.06767709336
55.03792431
-0.2635971218
0.1230849717
-0.06395656301
55.03636923
-0.2750399058
0.08329674144
-0.05794727109
55.04851011
-0.2901495888
0.05234258586
-0.04740455724
55.08634433
-0.3095790477
0.0005065842013
-0.02844748119
55.13779954
-0.3323926664
-0.04565539096
-0.00215955269
55.1841993
-0.3598643664
-0.04609235164
-0.002100355847
55.22063175
-0.3912962236
-0.03550726054
-0.007658079765
55.25210768
-0.4278258834
-0.03440062893
-0.005508705155
55.42025902
-0.4615837419
-0.17425829
-0.0004864615115
55.66451037
-0.5019143015
-0.2447547174
0.00290919007
55.67114815
-0.5302980728
-0.002234748106
0.004225220345
55.57266087
-0.5502844308
0.102076872
0.005766491093
55.13708866
-0.5755450508
0.4417359503
0.005474615211
53.21631054
-0.5742503839
1.91593367
0.01018931162
51.62354135
-0.5698752395
1.600300477
-0.0020118774
42.45801442
-0.5205279109
9.126849719
0.04513443123
46.77725594
-0.4633911358
-4.240183457
-0.07434223346
-0.4450708126
2.569037674
48.36644456
-4.15425308
47.91564009
0.001403803877
-2.523345647
-49.39050654
3.998796815
45.0674465
0.002916497533
4.228268754
-1.37879458
51.89499964
0.005365777642
-8.108617925
1.283791993
52.95605281
0.006814780981
-1.920779029
0.863605008
54.65746353
0.007506760156
-2.074886043
0.3789005132
55.48042061
0.007594110383
-0.9056237607
0.08939573482
55.87876115
0.006798547276
-0.3693774864
-0.02171656816
55.89146933
0.003700060047
0.04766774949
-0.05321153982
55.90628815
-0.001757794336
0.05600767551
-0.06304281313
55.92141158
-0.008252758754
0.05877271038
-0.06508533051
55.93578852
-0.01622487851
0.05985165348
-0.06475473503
55.94979627
-0.02556947276
0.06062523455
-0.06410276159
55.96368403
-0.03656053525
0.06138060441
-0.06340783875
55.97769862
-0.04946189311
0.06216525148
-0.06267190016
55.99215487
-0.06447279764
0.06305218498
-0.06194964104
56.00742841
-0.08171081906
0.06410976293
-0.06127411914
56.02392001
-0.1012137415
0.06541158819
-0.06068584531
56.04198055
-0.1229256146
0.06701947084
-0.06014535679
56.06198177
-0.1466123022
0.06897556291
-0.05971622382
56.08411885
-0.1718174005
0.07140015519
-0.0594099792
56.10843713
-0.1977953778
0.07426372031
-0.05919081479
56.13454979
-0.2235709048
0.07782719038
-0.05911943548
56.16157818
-0.2476258049
0.08225229691
-0.05932327842
56.18833387
-0.2693195582
0.08780718069
-0.0598144974
56.21202241
-0.2859163593
0.09474697311
-0.06062434268
56.23032653
-0.2973943496
0.1028079644
-0.06169497334
56.23902014
-0.3022778776
0.1125934526
-0.06323470625
56.23629906
-0.3023793801
0.1232291531
-0.06507986018
56.11320815
-0.2972082255
0.2385086924
-0.06657984154
56.00021437
-0.2919970485
0.2218425372
-0.06731534592
55.52750692
-0.2857319687
0.5731555507
-0.06687995156
55.21651997
-0.2820790954
0.4013719857
-0.06439249431
55.1862782
-0.2816624711
0.1085252932
-0.06022026231
55.17435904
-0.2833467025
0.07420509201
-0.05398179752
55.17500808
-0.2869850781
0.04250235906
-0.04631882771
55.21376002
-0.2936214259
-0.01849326349
-0.0362194493
55.2779708
-0.3048400315
-0.06717491966
-0.02459266843
55.33551975
-0.3242984324
-0.07522684371
-0.01789375867
55.37570633
-0.3522377055
-0.06952418369
-0.009725369467
55.40914218
-0.3884646248
-0.07562919439
0.002825793204
55.72476449
-0.423291994
-0.3647893169
0.01086968441
56.19719833
-0.4669822134
-0.5216838377
0.01431132286
56.29903437
-0.5000771443
-0.1479554166
0.0158914687
56.01267616
-0.5217115833
0.2393780602
0.01839949837
55.14165728
-0.551781178
0.8300670528
0.01718045525
53.22491516
-0.5503996723
1.870759063
0.02212681361
51.63302784
-0.5469320951
1.559504559
0.0094353902
42.46993702
-0.4989321628
9.083343604
0.05814745747
46.78872052
-0.4439171407
-4.276179955
-0.06207877025
-0.4276149641
2.532769679
48.3913533
-4.152858677
47.91596371
0.0006344576348
-2.523458811
-49.39044728
3.99871202
45.06802731
0.001409191846
4.227951525
-1.378507599
51.89033409
0.002592845142
-8.115508957
1.295975324
52.95014979
0.003046977943
-1.927045359
0.8709976611
54.65380984
0.002728617346
-2.08087603
0.3819943196
55.47863153
0.001963511164
-0.9093908482
0.0902000022
56.2732438
9.882078428e-06
-0.7662837124
-0.02153962174
56.52144849
-0.002813527733
-0.1885752668
-0.05311554282
56.53496196
-0.007765897764
0.05543427366
-0.06293931491
56.54800225
-0.01483353528
0.05865187125
-0.06511102724
56.56025514
-0.02368383562
0.06002953779
-0.06482308698
56.57195514
-0.03411933523
0.06108425169
-0.06423395615
56.58336861
-0.04642963926
0.06206298862
-0.06360690234
56.59482118
-0.06099221739
0.06299166171
-0.06291342282
56.60670402
-0.07808138459
0.06396153108
-0.06223530748
56.61945114
-0.09791047124
0.06503449335
-0.06158147085
56.63358428
-0.1206177637
0.06627070477
-0.06099936286
56.64965092
-0.1462363994
0.06770529886
-0.0604606985
56.66823934
-0.1746014715
0.06939058968
-0.05998939036
56.68986741
-0.2052235771
0.07140823786
-0.05962969704
56.71486436
-0.2372846201
0.07385038915
-0.05935769133
56.74309705
-0.2695315493
0.07692373227
-0.05919542734
56.77417204
-0.3001463023
0.08081730219
-0.05937157332
56.80619953
-0.3276226822
0.08596589664
-0.05969017921
56.83662593
-0.3482902918
0.09233698275
-0.06038955899
56.86254933
-0.3622660355
0.1004387987
-0.06149076229
56.87808426
-0.3654285622
0.1108160687
-0.06320067267
56.64037076
-0.3594032648
0.3596783694
-0.06494162019
56.20733525
-0.3453856135
0.5479989981
-0.06678707455
56.00667402
-0.3321730266
0.3079723511
-0.06713685195
55.52654706
-0.3155042924
0.5768049564
-0.0669080715
55.21399528
-0.3039403298
0.3985624345
-0.06415164747
55.19624829
-0.2968687323
0.0922838147
-0.05933347687
55.1823171
-0.2905725191
0.07369906481
-0.05254443341
55.1909363
-0.2837463753
0.03347671301
-0.04533807092
55.22857854
-0.2765069912
-0.01706784639
-0.03769206763
55.28007171
-0.2717292859
-0.05478367356
-0.02982470097
55.32485092
-0.2775913695
-0.07002223662
-0.02146808854
55.35743527
-0.2966224367
-0.08070929504
-0.007496484558
55.38581493
-0.327717129
-0.09822527402
0.009092269573
55.69914336
-0.3618858544
-0.393662564
0.01892200798
56.1706296
-0.4063483311
-0.5545571974
0.02243105468
56.3666404
-0.4441006756
-0.2763037967
0.02430963954
56.09627757
-0.4700539884
0.1919340644
0.02676412872
55.12767697
-0.5048175187
0.8962273946
0.02540214852
53.21688098
-0.5091720939
1.839420369
0.0301425207
51.63246345
-0.5095276177
1.53018291
0.01682614509
42.47574326
-0.4677086402
9.059724391
0.06576823897
46.79656124
-0.4170210151
-4.29085401
-0.05686117244
-0.4004821446
2.518797454
48.40413303
-4.153502339
47.91530498
0.0002846597294
-2.523387269
-49.39029472
3.998727145
45.06663138
0.0006551630887
4.227916089
-1.378488266
51.886214
0.001078935534
-8.11597595
1.297907485
52.94374509
0.000871075835
-1.92736367
0.8720086632
54.64578205
-0.0003624938472
-2.081320215
0.3823745746
55.46891284
-0.001811761448
-0.9095962443
0.0902409673
56.26259974
-0.005050498906
-0.7672269682
-0.0213992829
56.74583838
-0.008285492515
-0.4245017986
-0.05326458258
56.9746423
-0.01356107785
-0.159889495
-0.06311891903
56.9871858
-0.02060557074
0.05829847233
-0.06506958919
56.99842114
-0.02985566446
0.05964126516
-0.06470439318
57.00877881
-0.04095429951
0.06053415216
-0.06405643429
57.0185713
-0.05420366413
0.06137324536
-0.06339125622
57.02808403
-0.07004637785
0.06219115381
-0.06264925778
57.03775228
-0.08886357523
0.06303492086
-0.06192049021
57.04809656
-0.1109800673
0.0639462256
-0.06122043613
57.05976522
-0.13668219
0.06494851846
-0.06055227575
57.07354995
-0.1661437482
0.06606725309
-0.05994415781
57.09032024
-0.199322636
0.06728878799
-0.05933742097
57.11101945
-0.2357662908
0.06867678967
-0.05883281468
57.13651587
-0.2747106594
0.07029828377
-0.05836822581
57.16749029
-0.3148377015
0.07232493336
-0.05799282327
57.12174299
-0.3530335107
0.1565372748
-0.05790251095
57.06187439
-0.3860475448
0.1760602756
-0.05776669766
57.06404819
-0.4114833938
0.1191585585
-0.05813930692
57.09932858
-0.4271040925
0.08852529089
-0.05896779322
57.1239958
-0.4289865146
0.09963070993
-0.06074029826
56.65631213
-0.4172307934
0.5884294655
-0.06291886294
56.22827276
-0.3934810732
0.5404703943
-0.06433648329
56.02866175
-0.369522711
0.3021841682
-0.0652252308
55.5515245
-0.3423569312
0.5692734454
-0.06528595186
55.23974256
-0.320355071
0.390936532
-0.06274243313
55.21855171
-0.3025463399
0.08442079763
-0.05755442633
55.2067128
-0.2876810343
0.05962868428
-0.05068446943
55.19901218
-0.2722103466
0.03992488693
-0.04376386794
55.22724402
-0.251811621
-0.01758998158
-0.03534085567
55.26993341
-0.2291849135
-0.05997876669
-0.02525780392
55.30868722
-0.2181179518
-0.08232700323
-0.01590515711
55.33837205
-0.2245692689
-0.1028182211
0.001075234404
55.3668175
-0.2489796083
-0.1263261405
0.01913670921
55.68259648
-0.2809311068
-0.4266766541
0.02993811321
56.16009422
-0.3244751231
-0.5929159374
0.0335387577
56.27051193
-0.3642017614
-0.2263923666
0.03606991783
56.19654649
-0.3955700332
-0.03947053483
0.03894478933
55.12493989
-0.4266391679
0.9561540833
0.03726693498
53.21844827
-0.4390152682
1.792031696
0.04429789456
51.63003489
-0.4387721582
1.486066045
0.03158817733
42.47964212
-0.4038193125
9.002481723
0.08401801257
46.80033094
-0.3599473644
-4.338567124
-0.03919630045
-0.3478027801
2.467739813
48.42761838
-4.147706867
47.91523925
-0.0001296542815
-2.523433392
-49.3901406
3.998749381
45.06666814
-0.000126987311
4.227798549
-1.378445048
51.88626818
-0.0003656074548
-8.116437653
1.298282382
52.94382385
-0.001080869095
-1.927868801
0.8722652943
54.64559456
-0.002672802798
-2.082011873
0.382551659
55.46832827
-0.004530166736
-0.9104491611
0.09043409641
56.26123249
-0.00834760574
-0.7684359524
-0.02117089485
56.74368128
-0.01183113896
-0.425848313
-0.05305453926
57.18640506
-0.01770748839
-0.3753379026
-0.0632391599
57.19750891
-0.02441615235
0.05772860688
-0.06502154455
57.20654305
-0.0336047872
0.0593854373
-0.06467008868
57.21430307
-0.04498560179
0.06033747033
-0.06406577979
57.22118687
-0.05878720519
0.06114916983
-0.06344900655
57.22742521
-0.07546490566
0.06190658524
-0.06272594781
57.23346111
-0.09551001152
0.06261300801
-0.06200201727
57.23991465
-0.1193999049
0.06327685631
-0.06131009983
57.24754917
-0.1475959622
0.06386064089
-0.06058092401
57.25742404
-0.1804591936
0.06437647169
-0.05993542967
57.27075071
-0.2181766034
0.06471475353
-0.05918696958
57.28934371
-0.2606843714
0.06489103166
-0.05856548932
57.23306761
-0.3068692932
0.1463464797
-0.05791131042
57.16754
-0.3546745816
0.1624535377
-0.05708870352
57.04878161
-0.4013512793
0.2236429697
-0.05656656646
56.85477238
-0.442271801
0.3061559309
-0.05592234162
56.81052998
-0.4737110059
0.1620024693
-0.0555325023
56.85964059
-0.4924671588
0.0723578362
-0.05610564323
56.89771432
-0.4929257207
0.08390881313
-0.05804334419
56.67758598
-0.4740041571
0.3375048917
-0.06060376777
56.25507498
-0.4399288772
0.5317561047
-0.06279766094
56.05584347
-0.4016201751
0.295670555
-0.06434327189
55.5822872
-0.3644901145
0.5601328326
-0.06444535152
55.27553372
-0.3356816076
0.3831573502
-0.06107967682
55.26849677
-0.3149890543
0.07503954778
-0.05556240441
55.27979469
-0.2922618941
0.04104322344
-0.0477627979
55.27619278
-0.2617034526
0.03221268444
-0.03912197916
55.29905258
-0.21405711
-0.02786686795
-0.03275036063
55.30715826
-0.1588592166
-0.05159686823
-0.02683851835
55.31696182
-0.1266553788
-0.08455001404
-0.01671829116
55.32490408
-0.119025217
-0.1162897486
0.002797142209
55.34177917
-0.1404086924
-0.1479789282
0.02252752298
55.62247634
-0.1724103858
-0.4245548631
0.03533107443
55.87387427
-0.2167356915
-0.4000477361
0.0409062136
55.89714527
-0.2606239404
-0.1715078939
0.04465328235
55.92297253
-0.3034663582
-0.1648486596
0.04691147824
55.1122354
-0.3364470357
0.6745456862
0.04599372475
53.21618844
-0.3653853191
1.772577662
0.04983467072
51.63734302
-0.3732040518
1.477661438
0.03561273134
42.49096571
-0.349960526
9.007276461
0.08523828091
46.81251345
-0.3090039255
-4.331792864
-0.04069924268
-0.2960104931
2.474881559
48.43779398
-4.151954797
47.91478216
-0.0003123624021
-2.523394505
-49.38997094
3.998766378
45.06581878
-0.0004883010381
4.2277707
-1.378445803
51.88457375
-0.001182114478
-8.116132058
1.298193885
52.94101871
-0.002136124835
-1.9275645
0.8721749788
54.64168362
-0.004057085454
-2.081806627
0.3825261984
55.4630231
-0.006080859188
-0.910203796
0.09041524691
56.25449062
-0.01029329282
-0.7684020251
-0.02111952718
56.73530765
-0.01376303613
-0.425859925
-0.05302492283
57.17608411
-0.01988009249
-0.3753403377
-0.06326320939
57.18539375
-0.02640670385
0.05768717665
-0.06500593347
57.19238675
-0.03536268351
0.05936817337
-0.06460290971
57.19772722
-0.04665096972
0.06028504021
-0.06395974625
57.20176791
-0.06053345574
0.06102291108
-0.06331691379
57.20467598
-0.07750023988
0.06167247781
-0.06254476348
57.20686159
-0.09814135774
0.06222135766
-0.06177515907
57.20895923
-0.1231114159
0.06261229775
-0.0609979483
57.21185961
-0.1530876131
0.0627481538
-0.06015639071
57.21685966
-0.188633932
0.06254500878
-0.05936982073
57.19997153
-0.2303837677
0.08752220088
-0.0584263867
57.12816492
-0.2784155875
0.1470288203
-0.05749047967
56.92543682
-0.331306305
0.2834535206
-0.0562879482
56.71803102
-0.3870731388
0.2943393731