/*--------------------------------*- C++ -*----------------------------------*\
| =========                 |                                                 |
| \\      /  F ield         | OpenFOAM: The Open Source CFD Toolbox           |
|  \\    /   O peration     | Version:  2.2.1                                 |
|   \\  /    A nd           | Web:      www.OpenFOAM.org                      |
|    \\/     M anipulation  |                                                 |
\*---------------------------------------------------------------------------*/
FoamFile
{
    version     2.0;
    format      ascii;
    class       volVectorField;
    location    "6";
    object      U;
}
// * * * * * * * * * * * * * * * * * * * * * * * * * * * * * * * * * * * * * //

dimensions      [0 1 -1 0 0 0 0];

internalField   nonuniform List<vector> 
86889
(
(15.03496379 0.006001922297 0.004878695355)
(15.05344189 0.004763481767 0.006238141426)
(15.0565433 0.001968064563 0.006448146739)
(15.06185703 0.001679303561 0.004624517428)
(15.06913278 0.0003849259121 0.002493656931)
(15.07646694 -0.001653563348 0.0005297810147)
(15.08196568 -0.00316833435 -0.0009355977247)
(15.08652445 -0.00416714245 -0.002041465428)
(15.09090603 -0.004897598771 -0.002935090513)
(15.09498994 -0.005408903391 -0.003607522066)
(15.0988461 -0.005736087012 -0.004081844471)
(15.10245187 -0.005916616432 -0.004381396487)
(15.10602377 -0.006012176289 -0.004554863665)
(15.10948856 -0.006076157703 -0.004637911764)
(15.11288681 -0.0061302238 -0.004618007764)
(15.11628649 -0.006175479969 -0.004493175944)
(15.11972726 -0.006226889415 -0.004297101143)
(15.12316638 -0.006315419074 -0.004034402577)
(15.12658356 -0.00644610827 -0.003712077196)
(15.12996568 -0.006598926273 -0.003283956899)
(15.13323892 -0.006764511191 -0.002739533912)
(15.13633024 -0.006904545972 -0.002108736461)
(15.13912367 -0.007011966627 -0.001398451117)
(15.14142383 -0.007114966788 -0.000577004714)
(15.14281052 -0.007211308443 0.0003827450392)
(15.14308551 -0.007243313561 0.001419648711)
(15.14213875 -0.007204488161 0.002798720412)
(15.1396881 -0.007166722406 0.004189712429)
(15.13559717 -0.00713839561 0.005666746078)
(15.13002486 -0.007317524782 0.006984660377)
(15.12307259 -0.007657185507 0.008159769334)
(15.11393347 -0.008663951569 0.00940745545)
(15.10220994 -0.009763441769 0.01041374078)
(15.08837225 -0.01094840752 0.01311181691)
(15.07700376 -0.01276873937 0.01592245354)
(15.07506559 -0.01215227344 0.01539197631)
(15.08301103 -0.02035074925 0.01739106274)
(15.09223708 -0.02397647129 0.01798104459)
(15.09748749 -0.02502160439 0.01801412236)
(15.09967732 -0.02646912534 0.01779688862)
(15.09938854 -0.02897916569 0.0184325109)
(15.09814383 -0.03118375923 0.02093299411)
(15.09589683 -0.03266136719 0.02454683629)
(15.09302295 -0.03349494147 0.02789684159)
(15.08677475 -0.03389197114 0.03164582858)
(15.08353109 -0.03399868221 0.03399688961)
(15.06896558 -0.03391101919 0.03748271609)
(15.08582074 -0.03765236761 0.03577858675)
(14.97325919 -0.04185741995 0.02831320825)
(15.28388768 -0.1243441251 -0.05617629025)
(15.01777442 0.007421869377 0.005851678101)
(15.02839937 0.01088520275 0.005891027905)
(15.03535354 0.01375283873 0.00586270643)
(15.04238037 0.01790717479 0.00581591213)
(15.04893227 0.02111606912 0.005138156895)
(15.05470008 0.02285499651 0.004257679581)
(15.0595579 0.02362092678 0.003596651088)
(15.06371421 0.02380787089 0.003182960944)
(15.06754154 0.02361887085 0.002902613382)
(15.07113634 0.02317397467 0.002703508034)
(15.07455259 0.0225360019 0.002595236131)
(15.07781978 0.0217415661 0.002571416791)
(15.08101442 0.02081239217 0.002611892663)
(15.08420619 0.01977303773 0.002704519179)
(15.08746111 0.01863226664 0.002856045834)
(15.09083723 0.01740380101 0.003071919994)
(15.09438734 0.0160978493 0.003330119473)
(15.09813923 0.01471501856 0.003636829218)
(15.10207052 0.0132713517 0.003974512737)
(15.10614547 0.01180530258 0.004374520483)
(15.11030798 0.01036139157 0.00484300482)
(15.11444337 0.008959305308 0.005402052157)
(15.11852351 0.007557585505 0.006060245612)
(15.12217645 0.00621693094 0.006799299038)
(15.12522157 0.004902002448 0.007733508464)
(15.12722922 0.003735924153 0.008857258132)
(15.12807107 0.002733991374 0.01016871326)
(15.12755232 0.001664502435 0.01150636837)
(15.12555757 0.000469600894 0.01301288521)
(15.12199147 -0.001007099572 0.01416633638)
(15.11736054 -0.00307153704 0.01531306632)
(15.11165993 -0.006147169246 0.01618080461)
(15.10649158 -0.009573106615 0.01714402854)
(15.10070844 -0.01473779546 0.01769134645)
(15.10040862 -0.01871417639 0.01906775909)
(15.09390678 -0.02238569971 0.01400151654)
(15.11909709 -0.02940288877 0.01504651356)
(15.13259111 -0.03549525499 0.01790054847)
(15.13897381 -0.04176533715 0.01904605788)
(15.14089996 -0.04872697467 0.0178767915)
(15.14113719 -0.05602363247 0.01685259789)
(15.14145947 -0.06068276003 0.01768485851)
(15.14120428 -0.06396328815 0.01945027149)
(15.14002667 -0.06638616053 0.02157482629)
(15.1366153 -0.06846801245 0.0240728291)
(15.13438229 -0.07016699464 0.02669981916)
(15.12431236 -0.07169394853 0.029389202)
(15.13733286 -0.07334974202 0.03102536202)
(15.06783181 -0.08536952264 0.03042761873)
(15.22261473 -0.06770799512 -0.02944627918)
(15.01641874 0.003324101184 0.006041765561)
(15.02265176 0.004867349875 0.007287845097)
(15.02746802 0.00589551733 0.01127982596)
(15.03395355 0.006494341812 0.008501485261)
(15.04073479 0.006792610882 0.004450205928)
(15.04678293 0.006431143484 0.00252002147)
(15.05158406 0.005997064779 0.002716798313)
(15.05632586 0.005394335603 0.003184169697)
(15.06109593 0.00463472829 0.003272119896)
(15.06583235 0.003829466562 0.003163489288)
(15.07041846 0.002999618659 0.003040175999)
(15.07484964 0.002085497007 0.002962541107)
(15.07924743 0.001025697313 0.0029355456)
(15.0836529 -0.0002232956611 0.002968984328)
(15.08813347 -0.001668521131 0.003071183621)
(15.09274244 -0.003297534811 0.00323310159)
(15.09750457 -0.005092302801 0.003441852063)
(15.10243946 -0.007030479436 0.003691127467)
(15.10757594 -0.009076195714 0.00399975436)
(15.11291392 -0.011178946 0.004374817105)
(15.11839062 -0.01328446796 0.00482457637)
(15.12385657 -0.01531765165 0.005355781454)
(15.12932425 -0.01733203793 0.006059746624)
(15.13431904 -0.01916917686 0.006817582045)
(15.13869661 -0.02080217071 0.007704410356)
(15.14216543 -0.02226789953 0.008784361709)
(15.14436183 -0.02361506599 0.01004191772)
(15.1449917 -0.02481774893 0.01126423709)
(15.14400032 -0.0261819624 0.01257024355)
(15.14125264 -0.02799091709 0.01369861469)
(15.13709672 -0.03044368167 0.01482587712)
(15.13203111 -0.03396692437 0.01544044167)
(15.12731499 -0.03831741348 0.0158796469)
(15.12303786 -0.04411795422 0.01526442093)
(15.12353615 -0.04956579036 0.01556945994)
(15.11874379 -0.05678216005 0.009779039628)
(15.1423523 -0.06303648233 0.007974050334)
(15.15631714 -0.07019648803 0.008438329641)
(15.16411566 -0.07833717903 0.008107131536)
(15.16817103 -0.08699095836 0.006506528088)
(15.17098649 -0.0946030889 0.006055757374)
(15.17336341 -0.100026555 0.007393436865)
(15.17444213 -0.1039540821 0.009595836795)
(15.17460577 -0.1066094089 0.0117803377)
(15.17104063 -0.1092642005 0.01479120336)
(15.17231167 -0.1110754482 0.01676192978)
(15.15245126 -0.1116792044 0.01897914938)
(15.19384867 -0.1143174732 0.0179828463)
(15.08108138 -0.1248956124 0.01496342748)
(15.22224382 -0.1314177014 -0.04540713174)
(15.01613616 0.002214281404 0.005755447572)
(15.02339124 0.004360949957 0.006235331352)
(15.02844621 0.007559134369 0.01023467064)
(15.03725563 0.01013145084 0.007669472554)
(15.04389108 0.01222398535 0.006411394007)
(15.04941332 0.01317329384 0.00515537453)
(15.0548554 0.01349635244 0.004528917051)
(15.05919724 0.0134426938 0.005432113232)
(15.06348194 0.01295714225 0.006466606031)
(15.06778089 0.01212509244 0.006946853818)
(15.07196649 0.0110571293 0.007140224564)
(15.0759412 0.009804167958 0.007282026677)
(15.07986048 0.008327870975 0.007416146504)
(15.08381615 0.006621570806 0.007501721921)
(15.08792303 0.004672543402 0.007590324386)
(15.09225239 0.002444477717 0.007723967668)
(15.09685863 -6.320744082e-05 0.007904087437)
(15.10177932 -0.002821392411 0.008134863224)
(15.10701766 -0.005773750449 0.00843589392)
(15.1125566 -0.008868517432 0.008821743344)
(15.11835119 -0.01202702527 0.009277029609)
(15.12424965 -0.01513889909 0.009827491198)
(15.13027899 -0.0181946944 0.01052099928)
(15.13580987 -0.02088689238 0.01131839402)
(15.14109722 -0.02342399357 0.0123207836)
(15.14515789 -0.02548025726 0.01338534049)
(15.14813937 -0.02744262556 0.01474326521)
(15.14919591 -0.02893479589 0.015991267)
(15.14849638 -0.03061247545 0.0173680103)
(15.14577026 -0.03272586645 0.01862172401)
(15.14127513 -0.03554150257 0.01952984378)
(15.13573234 -0.03937588948 0.01984123845)
(15.13031649 -0.04422824057 0.01918857249)
(15.12607026 -0.05039498016 0.01725260084)
(15.12475012 -0.05727806611 0.01407559325)
(15.12543325 -0.06632111234 0.008286562149)
(15.13326155 -0.07364228507 0.003828763504)
(15.14181756 -0.08244278534 0.000468164089)
(15.14826092 -0.09288361157 -0.003266805439)
(15.15389606 -0.1041626201 -0.006986219865)
(15.15891311 -0.1127290298 -0.008794106953)
(15.16383616 -0.1195809857 -0.008700375318)
(15.16723821 -0.1246890072 -0.007775409398)
(15.16923947 -0.1290975215 -0.006337715302)
(15.16840237 -0.1332263375 -0.004554987484)
(15.17020326 -0.137704972 -0.002056954291)
(15.15734007 -0.1420032777 0.0003581097925)
(15.19360095 -0.1456769069 -0.0001781782574)
(15.08071198 -0.1506611778 0.000887151731)
(15.22363856 -0.1514167805 -0.05689664449)
(15.01618664 0.001413931412 0.006017260964)
(15.02228871 0.002664188916 0.00620714729)
(15.02622867 0.004055593608 0.01044752361)
(15.03449415 0.004827903445 0.00779466992)
(15.03993667 0.005482056837 0.005768330853)
(15.04404917 0.00553279319 0.004688509413)
(15.04839018 0.004611752597 0.00351669222)
(15.05273451 0.003440788149 0.004068429823)
(15.05708566 0.002159537929 0.005028993595)
(15.06160344 0.0006713157241 0.00541038391)
(15.06618152 -0.001073085677 0.005444789747)
(15.07070767 -0.003081050709 0.005463676917)
(15.07519744 -0.005368605919 0.005474480333)
(15.07971148 -0.007907475982 0.005514132938)
(15.08429663 -0.01069266875 0.005562363794)
(15.08901685 -0.01374416505 0.005628662976)
(15.0939584 -0.0170716348 0.005739892951)
(15.0991962 -0.02067368328 0.005909679366)
(15.10477971 -0.0245164234 0.006158097542)
(15.11073004 -0.02853181688 0.00648934209)
(15.11702123 -0.03261424108 0.006900518986)
(15.1235536 -0.03663383122 0.007421745404)
(15.13027043 -0.04047568387 0.008078790989)
(15.13668845 -0.04387420678 0.008874148146)
(15.14291781 -0.04694674379 0.009867635772)
(15.14791686 -0.0493156523 0.0109557789)
(15.15177586 -0.05128520501 0.012337753)
(15.15339264 -0.05272471333 0.01372064662)
(15.1529659 -0.05401897549 0.01504126055)
(15.15022247 -0.05562894635 0.01619051848)
(15.14548822 -0.05790493495 0.0169311977)
(15.13952122 -0.06118483081 0.01666159296)
(15.13361172 -0.06540984011 0.01490432736)
(15.1290224 -0.07065568017 0.01118610774)
(15.12696332 -0.0768921005 0.006118472599)
(15.1277308 -0.08431891166 -0.0008314822555)
(15.13148882 -0.09167231139 -0.007642540021)
(15.13653656 -0.1001970303 -0.01419025696)
(15.14187494 -0.1098137691 -0.02038768661)
(15.1486301 -0.1198218145 -0.02475636791)
(15.1558165 -0.1277708167 -0.02621854333)
(15.16370952 -0.1351688398 -0.02627778419)
(15.16894011 -0.1402692366 -0.02574765999)
(15.17296545 -0.144734834 -0.02468645944)
(15.17195579 -0.1489729888 -0.02283628155)
(15.18038454 -0.1526833447 -0.02058573889)
(15.16317563 -0.1585498684 -0.01614346726)
(15.1989929 -0.1593411418 -0.01747468886)
(15.08612789 -0.1633809275 -0.01507393132)
(15.22882678 -0.1652467975 -0.07195137137)
(15.0162691 0.001069524303 0.005988960966)
(15.02258414 0.002093714197 0.006005004118)
(15.02696396 0.003661286345 0.009954641941)
(15.03590339 0.004739362698 0.007211218148)
(15.04213027 0.005953980008 0.004863178956)
(15.04593103 0.006840781392 0.003487799985)
(15.04996278 0.007119424967 0.002864584684)
(15.05424154 0.006693240141 0.004015008214)
(15.0585213 0.005890869047 0.005371921612)
(15.06256079 0.004908264862 0.005939049916)
(15.06643716 0.003688325075 0.006098625627)
(15.07019523 0.002096848851 0.006173930839)
(15.07392508 5.838451199e-05 0.006245637815)
(15.07774716 -0.002458048884 0.006319867548)
(15.08172963 -0.005454693615 0.006405994346)
(15.08593197 -0.00891780374 0.006521990059)
(15.0904282 -0.01283496724 0.006678542167)
(15.09529726 -0.01717946317 0.006880265011)
(15.1006097 -0.02189922657 0.007149065558)
(15.10642007 -0.02690680986 0.007491841621)
(15.11272956 -0.03206571759 0.007912679238)
(15.11950406 -0.03721070032 0.008453167165)
(15.12653364 -0.04207751952 0.009105104633)
(15.13373375 -0.04656099953 0.009944582586)
(15.14056091 -0.0503431817 0.01092660692)
(15.14649506 -0.05324849693 0.01211367171)
(15.15101577 -0.0552984455 0.01356444076)
(15.15326181 -0.05660044605 0.01512830516)
(15.15252185 -0.05731419063 0.0164177551)
(15.14978319 -0.05823400229 0.01754018438)
(15.14507385 -0.05966837527 0.01798134036)
(15.13776059 -0.06198088954 0.01705985323)
(15.13079163 -0.06484352225 0.01411851615)
(15.12511756 -0.06874098159 0.008450357348)
(15.12197886 -0.07386800668 0.0008475667319)
(15.12146236 -0.08059872935 -0.007565314299)
(15.12325947 -0.08850390168 -0.01609737991)
(15.12643415 -0.09756010477 -0.02507866596)
(15.13073158 -0.1071976559 -0.03358808668)
(15.1377035 -0.1174100929 -0.04020905261)
(15.14511762 -0.1262083406 -0.04313796026)
(15.15456891 -0.1355316979 -0.04396195415)
(15.16161376 -0.1423370795 -0.04388956481)
(15.16642958 -0.1481342726 -0.04327976781)
(15.16802298 -0.1559083705 -0.04096314556)
(15.17421668 -0.1612413346 -0.03806745148)
(15.16001984 -0.1670820021 -0.03375000259)
(15.196845 -0.1686297029 -0.03469216382)
(15.08663235 -0.1735016391 -0.02942074109)
(15.23212989 -0.1752958888 -0.08566405628)
(15.01623644 0.0006461020336 0.006041810899)
(15.02214644 0.001225195562 0.006002317929)
(15.02563641 0.001906521572 0.01004426498)
(15.03444045 0.002201894944 0.007161953013)
(15.03935782 0.002253391583 0.004586090243)
(15.04316438 0.002132279802 0.002327328374)
(15.04547995 0.001781844098 0.001286984517)
(15.04892285 0.0006024478003 0.002572241626)
(15.05282629 -0.001201779152 0.004303655233)
(15.05700271 -0.003297950357 0.005074762392)
(15.06112668 -0.005630901696 0.005268015973)
(15.06496993 -0.00820254006 0.00535639707)
(15.06869495 -0.01111907539 0.005427222555)
(15.07243043 -0.01445162277 0.005482542849)
(15.07626528 -0.01825672406 0.005544508521)
(15.08027715 -0.02256936306 0.005631826286)
(15.08456423 -0.02740803695 0.005760629481)
(15.08923956 -0.03276626635 0.005929753984)
(15.09441434 -0.03859751606 0.006157792946)
(15.1001882 -0.04480987278 0.006455171837)
(15.10662087 -0.05124394342 0.00682486673)
(15.11373354 -0.0576838192 0.007309723576)
(15.12136551 -0.06380372998 0.007921126584)
(15.12943429 -0.06938759167 0.008719886247)
(15.13738958 -0.07397938082 0.009702311802)
(15.14464063 -0.07731692635 0.01093075916)
(15.15042481 -0.07926697897 0.01235902368)
(15.15378471 -0.07983545575 0.01413178357)
(15.15414442 -0.07964486828 0.0152944382)
(15.15117148 -0.07930994521 0.01622445599)
(15.14540724 -0.07904555684 0.01638922579)
(15.13783037 -0.0794140624 0.01473330175)
(15.13006513 -0.08033229077 0.01047459541)
(15.12346039 -0.0818252121 0.002464073646)
(15.11885753 -0.0837219437 -0.007846419989)
(15.1164951 -0.08616387337 -0.01900498614)
(15.11647973 -0.08936601117 -0.02929080687)
(15.11862713 -0.09448207102 -0.03943388115)
(15.12281499 -0.1015671129 -0.04920794321)
(15.13078585 -0.1108328401 -0.05775904107)
(15.13843101 -0.1192928044 -0.06127805015)
(15.15067832 -0.1297189027 -0.06189378637)
(15.15833208 -0.1368208211 -0.06157163269)
(15.16613936 -0.1423971269 -0.06135856635)
(15.16717338 -0.1518869595 -0.05751689974)
(15.17470586 -0.1553081942 -0.05501688849)
(15.16204938 -0.1600650644 -0.05033806678)
(15.199392 -0.161080852 -0.05141938219)
(15.09060405 -0.1642698662 -0.04398783709)
(15.23802685 -0.1650881031 -0.09991483872)
(15.01629872 0.0004498301443 0.006025999743)
(15.02221067 0.000891678425 0.005948291704)
(15.02617814 0.001496856384 0.009869225876)
(15.03464197 0.001864236662 0.007039218577)
(15.04043414 0.002147632551 0.00416623334)
(15.04378733 0.002312269097 0.001831080639)
(15.0469362 0.002307206742 0.0004270974655)
(15.04910468 0.002037145746 0.001549843954)
(15.05269017 0.001212306559 0.003568939943)
(15.05638761 -0.0001862746896 0.004725264769)
(15.05987961 -0.002023342534 0.005116470979)
(15.06312734 -0.00430117884 0.00529631072)
(15.06620484 -0.007079958284 0.005430469006)
(15.06924925 -0.01044258351 0.005538967478)
(15.07237128 -0.01445219991 0.005647727665)
(15.07566981 -0.01915174967 0.005766744319)
(15.07926101 -0.02456891219 0.00591289613)
(15.08328792 -0.03071095265 0.006088124515)
(15.08790872 -0.03753821709 0.006303725683)
(15.09328808 -0.04495081549 0.006578046007)
(15.09955838 -0.05276311292 0.006913564588)
(15.10683298 -0.06069369164 0.007334014522)
(15.11495458 -0.06828725208 0.00787377428)
(15.12414952 -0.07538078408 0.008620621828)
(15.13311175 -0.08087964054 0.009532014256)
(15.14233613 -0.08491319164 0.01078764908)
(15.14942519 -0.08662155437 0.01227516789)
(15.15469647 -0.08651693672 0.01364867425)
(15.1557365 -0.08458292098 0.01538984783)
(15.15292018 -0.08257998938 0.01631612195)
(15.14635673 -0.07965114876 0.01639349227)
(15.13825277 -0.0775343488 0.01414259043)
(15.12978021 -0.07613457258 0.008395018452)
(15.12332236 -0.07536189875 -0.001648801162)
(15.119381 -0.07543938786 -0.01416946531)
(15.11753547 -0.07643488535 -0.02802312253)
(15.11625353 -0.07861576044 -0.04056220687)
(15.11506656 -0.08276117115 -0.05224935861)
(15.11594452 -0.08930724418 -0.06338392062)
(15.12172351 -0.09838411148 -0.07277175205)
(15.12894714 -0.1072205846 -0.076432819)
(15.14070333 -0.1181064884 -0.07674093466)
(15.14939252 -0.1268534248 -0.07592512996)
(15.15796598 -0.1333923216 -0.07542780893)
(15.16165503 -0.1441678598 -0.07125290022)
(15.16929765 -0.1494496641 -0.06810573832)
(15.15991616 -0.1562945204 -0.06228292559)
(15.19899148 -0.1586349421 -0.06277867775)
(15.09218856 -0.1636593414 -0.05285498386)
(15.241404 -0.1656040707 -0.1081055086)
(15.01631678 0.0002071806093 0.006047924611)
(15.02189945 0.0004060450685 0.005954500973)
(15.02572145 0.0005514023302 0.009923638574)
(15.03341663 0.0004888528024 0.007128782879)
(15.03899633 0.0001093084555 0.004049247675)
(15.04157643 -0.0003864213051 0.001682979508)
(15.04459301 -0.001414998569 -6.424848058e-05)
(15.04614872 -0.002345955128 0.0009680628983)
(15.04899359 -0.003821404671 0.002966971982)
(15.0523876 -0.00585355278 0.004248009514)
(15.05567961 -0.008396848318 0.004808897363)
(15.05867291 -0.01133415653 0.00502765279)
(15.06138351 -0.01475244125 0.005151803107)
(15.06395908 -0.01877177892 0.005251521966)
(15.06653391 -0.02348729382 0.005352587724)
(15.06922171 -0.02897832591 0.005458908031)
(15.07215837 -0.035310502 0.005573296772)
(15.07552186 -0.04252759386 0.005707744763)
(15.079534 -0.05062505388 0.005849550618)
(15.08443056 -0.05951199768 0.006021510133)
(15.09049348 -0.06900812236 0.006229735416)
(15.0978498 -0.07880198992 0.006490978738)
(15.10690462 -0.08836244172 0.006858341238)
(15.11728603 -0.09706773292 0.00739435426)
(15.12786168 -0.1040665688 0.008128858007)
(15.13989516 -0.1089680302 0.009318263926)
(15.14850228 -0.1103737854 0.01065530749)
(15.15716035 -0.1091358488 0.01221547382)
(15.1595916 -0.1051280421 0.0140656591)
(15.15723751 -0.1009100959 0.0153061381)
(15.15064295 -0.09552278423 0.01531502101)
(15.14283908 -0.0916218877 0.0127991497)
(15.1330817 -0.08763109387 0.005284941834)
(15.12488081 -0.08284058198 -0.007769598966)
(15.11874749 -0.07709891071 -0.02445882911)
(15.11443558 -0.07048502056 -0.04344764125)
(15.11117983 -0.06451272021 -0.06121260896)
(15.10898076 -0.0631385926 -0.07459255741)
(15.10920234 -0.06685803748 -0.0871965638)
(15.11439047 -0.0745133071 -0.09730320101)
(15.12203519 -0.08346573218 -0.1009214081)
(15.13403695 -0.09491089605 -0.1007431081)
(15.14478906 -0.1050041594 -0.09993301557)
(15.15314645 -0.112650923 -0.09908064679)
(15.15929138 -0.1242635372 -0.09443152316)
(15.16701817 -0.1296006745 -0.09116508166)
(15.15868124 -0.1348651996 -0.08490691706)
(15.19787951 -0.1361617095 -0.08560769539)
(15.09331067 -0.1392204963 -0.07254845826)
(15.24611911 -0.1398957111 -0.127042861)
(15.01632438 0.0001000797915 0.006034294968)
(15.02195241 0.0002240606047 0.005935819281)
(15.02579988 0.0003542859292 0.009877147336)
(15.03355751 0.0003706994776 0.007053299123)
(15.03909981 0.0002293887127 0.003929054027)
(15.04161414 -1.580605485e-05 0.001480084359)
(15.04446081 -0.000651788839 -0.0004130558372)
(15.04585737 -0.001301422176 0.0005076202882)
(15.0481401 -0.002461637146 0.002519223747)
(15.05092794 -0.003937502089 0.003838261204)
(15.05368514 -0.006061237361 0.00459741134)
(15.05612026 -0.008725666028 0.004922029559)
(15.05815829 -0.01199563315 0.005086250026)
(15.05994625 -0.01598782014 0.005210520839)
(15.06164082 -0.02081787874 0.005329268853)
(15.06336912 -0.02659579202 0.005442249994)
(15.06528735 -0.03342485581 0.005529403937)
(15.06760278 -0.04138661575 0.005616758811)
(15.07063233 -0.05051845458 0.005662623207)
(15.07462658 -0.06078778685 0.005697959302)
(15.08034635 -0.07203302417 0.005706225716)
(15.08772991 -0.08393256771 0.005700051958)
(15.09727577 -0.09576397624 0.005799347168)
(15.10924594 -0.1065418444 0.006062124804)
(15.12218878 -0.1152857139 0.0066397691)
(15.13615301 -0.120931035 0.007595892887)
(15.14972739 -0.1222069132 0.009094615052)
(15.15981816 -0.1191646532 0.01085141589)
(15.16542899 -0.1121090786 0.01290126668)
(15.1630777 -0.1033286542 0.01458498141)
(15.15667129 -0.09377703543 0.0149692682)
(15.14735385 -0.08636863206 0.01189660531)
(15.13964507 -0.08181053088 0.004806606466)
(15.13491168 -0.07876977133 -0.007326067988)
(15.13314078 -0.07596031355 -0.022261421)
(15.13150793 -0.07085888894 -0.03838382487)
(15.12540127 -0.0629687422 -0.05589329631)
(15.11514795 -0.05589827353 -0.07364006628)
(15.10646134 -0.05317404404 -0.09239804382)
(15.1067148 -0.05675077828 -0.1041524293)
(15.11180111 -0.06359319043 -0.1086443757)
(15.1222933 -0.07393476998 -0.1096830645)
(15.13320746 -0.08430878906 -0.1097449419)
(15.14179825 -0.09437693815 -0.1080681404)
(15.15303716 -0.1034702552 -0.1052456186)
(15.16171231 -0.1140431994 -0.09864949342)
(15.15828975 -0.1207853713 -0.09203955735)
(15.19941705 -0.1248204284 -0.09114237462)
(15.09625187 -0.1288815705 -0.07549401386)
(15.24931767 -0.1304508021 -0.1292005138)
(15.01632191 -5.225196484e-05 0.006042872224)
(15.02178585 -6.717439017e-05 0.005936720341)
(15.02553455 -0.0002591329091 0.009907396404)
(15.03292926 -0.0005042965371 0.007100089553)
(15.03829907 -0.001060539623 0.003908015105)
(15.04039311 -0.001615939593 0.001487256224)
(15.04299266 -0.002781768831 -0.0004952854077)
(15.043949 -0.003712934254 0.0003820645243)
(15.04582874 -0.005341270139 0.002369614935)
(15.04817282 -0.007086247752 0.003687317916)
(15.05043675 -0.009476002287 0.004477804007)
(15.05233296 -0.01244217324 0.004819113259)
(15.05374028 -0.01604208249 0.004980476931)
(15.0547755 -0.0203941155 0.005088665876)
(15.05558559 -0.02564000887 0.005187316141)
(15.05629625 -0.03193343594 0.005259798937)
(15.05707866 -0.03943480002 0.00527812417)
(15.05815684 -0.04827818627 0.005252560946)
(15.05995434 -0.05858717692 0.005118737802)
(15.06289884 -0.0704772997 0.00489597943)
(15.06783365 -0.08379235898 0.004585311404)
(15.07497184 -0.09811981371 0.004165612199)
(15.08445767 -0.1127244036 0.003781815469)
(15.09813939 -0.1262939594 0.003438476861)
(15.11444494 -0.1373330421 0.003372774547)
(15.13236509 -0.1444066432 0.003903600699)
(15.15084407 -0.146251428 0.005328771231)
(15.16620631 -0.1418716317 0.007718388225)
(15.17527634 -0.1333302222 0.01048785741)
(15.17468903 -0.12227676 0.01298272691)
(15.16831867 -0.1110820047 0.01402050985)
(15.1557705 -0.09990020711 0.01169537227)
(15.14242193 -0.08949214323 0.004698697973)
(15.13259515 -0.07701121883 -0.008085610671)
(15.12819726 -0.06135251319 -0.02475267285)
(15.12879993 -0.04001763605 -0.04210825585)
(15.12698673 -0.01871600394 -0.06370169424)
(15.12006599 -0.01017358515 -0.08309665127)
(15.11045934 -0.01017754559 -0.1038867392)
(15.10553887 -0.0174357985 -0.11950971)
(15.10794579 -0.02692948819 -0.1260181638)
(15.11605369 -0.03982893596 -0.1288061973)
(15.12544501 -0.05296648148 -0.1294644514)
(15.13551598 -0.06592451907 -0.1279700415)
(15.14478899 -0.07506675682 -0.1261836928)
(15.15570258 -0.085076516 -0.1207822391)
(15.1514975 -0.09125825333 -0.1140121587)
(15.19216394 -0.0947503512 -0.1137074667)
(15.09393658 -0.09484128788 -0.0965041762)
(15.25164401 -0.09480042761 -0.1494329196)
(15.01634166 -6.770001703e-05 0.006039136899)
(15.0217618 -8.477657136e-05 0.005928125973)
(15.02554925 -0.0002222077285 0.009891195373)
(15.03276101 -0.0003893676027 0.00709478464)
(15.03814189 -0.0007880487703 0.003831232915)
(15.03996929 -0.001182346222 0.001432710816)
(15.04250178 -0.00212976432 -0.0006283429889)
(15.04307963 -0.002841562973 0.0002474426752)
(15.04466305 -0.004225716952 0.002250439335)
(15.04654081 -0.00567473718 0.003540920066)
(15.04826893 -0.007755974337 0.004341896196)
(15.04954077 -0.01043406623 0.004720197667)
(15.05020457 -0.0137861201 0.004897230027)
(15.05035091 -0.01794513686 0.005011398453)
(15.05010743 -0.02307651111 0.005089170627)
(15.04958036 -0.02937368654 0.005120802823)
(15.04897303 -0.03704975696 0.005053380175)
(15.0484084 -0.04630989673 0.004880904506)
(15.04875671 -0.05747263442 0.004487080216)
(15.05019212 -0.07069218848 0.003948381929)
(15.05345092 -0.08585072395 0.003163386918)
(15.05976516 -0.1024980415 0.002168899913)
(15.06964607 -0.1200317035 0.0009482741127)
(15.08457155 -0.1370245687 -0.0002681607009)
(15.10535969 -0.1510053287 -0.001453203008)
(15.12871774 -0.1592062827 -0.001610676458)
(15.15214708 -0.1590862162 -0.0002813748764)
(15.17256452 -0.1499515674 0.002737996951)
(15.18456035 -0.1325461807 0.007112567559)
(15.18555128 -0.1151864756 0.01053462431)
(15.17833434 -0.09829612645 0.01211287531)
(15.17015208 -0.08896889 0.01091438491)
(15.16373312 -0.08266982045 0.00325978189)
(15.16682732 -0.0803689128 -0.005059869189)
(15.17454016 -0.07751489715 -0.01303510821)
(15.17342084 -0.06052289251 -0.01520846806)
(15.15119951 -0.03133461147 -0.02913620943)
(15.11925131 -0.002484023998 -0.05167424338)
(15.09727251 0.01486882215 -0.07895405901)
(15.08755197 0.0157457595 -0.09633822621)
(15.08796873 0.009077775048 -0.1043923299)
(15.09428808 -0.00256563234 -0.1085802685)
(15.1047564 -0.01566056614 -0.1099926597)
(15.11795372 -0.02955226762 -0.1087426628)
(15.12997934 -0.040305314 -0.1060864502)
(15.14773154 -0.05353882334 -0.09854285771)
(15.14641448 -0.06104649781 -0.09125400188)
(15.19003832 -0.06607132478 -0.08874174626)
(15.09368971 -0.06695208449 -0.07235626805)
(15.2481737 -0.06734798342 -0.126955824)
(15.01634363 -0.0001512763716 0.006044272386)
(15.02166384 -0.0002411086388 0.005927158389)
(15.02543094 -0.0005139763923 0.009904795449)
(15.03237266 -0.0007746374364 0.007132249234)
(15.0376908 -0.001316524868 0.003803843753)
(15.03916882 -0.001784803159 0.001455402663)
(15.04156061 -0.002910565171 -0.0006726131782)
(15.04172112 -0.003612580624 0.0001981517263)
(15.04298158 -0.005099745484 0.002237329055)
(15.04444093 -0.006566129508 0.003497928469)
(15.04565889 -0.008644213758 0.004304524706)
(15.04632967 -0.01128768304 0.004675494661)
(15.04626927 -0.01457909681 0.004849014335)
(15.0455316 -0.0186629263 0.00494464312)
(15.04420843 -0.02372099455 0.004985464384)
(15.04238922 -0.02998931634 0.004936220633)
(15.04019767 -0.03769897319 0.004762960826)
(15.03790809 -0.04720177476 0.004349397075)
(15.03642762 -0.05898188919 0.00366623669)
(15.0354167 -0.07321669469 0.002637994776)
(15.03669881 -0.08988784915 0.001192617463)
(15.04118556 -0.1088563964 -0.0008840820988)
(15.05175237 -0.1295722403 -0.003534568015)
(15.06795537 -0.1507061759 -0.006617671406)
(15.0929111 -0.1696477217 -0.009519791636)
(15.12635109 -0.182669032 -0.01132812119)
(15.16208262 -0.1868274035 -0.01023933001)
(15.19467504 -0.1782999233 -0.004626492471)
(15.21141945 -0.1603795005 0.002863090097)
(15.20992565 -0.1395172744 0.008800244187)
(15.19476034 -0.1187585534 0.01174438148)
(15.16998682 -0.09863693866 0.009981068848)
(15.15330661 -0.08356683219 0.003770918596)
(15.13665431 -0.06529048839 -0.01283768429)
(15.16092259 -0.06165994181 -0.01957264948)
(15.17144861 -0.003027432691 -0.02672583648)
(15.18387336 0.02928444439 -0.0290830912)
(15.15688855 0.03330721007 -0.04270270141)
(15.12244701 0.03652879025 -0.06863450816)
(15.09827281 0.03305529294 -0.09647859548)
(15.08927489 0.02128244793 -0.1133796466)
(15.09115171 0.005129332974 -0.1236128487)
(15.09902126 -0.0105124682 -0.1297242967)
(15.1110089 -0.02550821152 -0.1327327477)
(15.12263743 -0.03580746747 -0.1342699367)
(15.13768184 -0.04872000929 -0.1295920265)
(15.13932509 -0.05347328535 -0.1257760658)
(15.18237922 -0.05847809403 -0.1220515967)
(15.09351369 -0.05547377885 -0.1056180892)
(15.25344677 -0.05474439849 -0.1578156412)
(15.01634326 -0.0001333068192 0.006040068979)
(15.02165463 -0.0002058627018 0.005922490823)
(15.02533528 -0.0003995237665 0.009907499371)
(15.03229024 -0.0005985057731 0.00710649378)
(15.03740355 -0.0009909307563 0.003793958945)
(15.0388337 -0.001355672592 0.001397119361)
(15.04095745 -0.002228292471 -0.0007218585975)
(15.04090301 -0.002753272662 0.000147939691)
(15.04189798 -0.003977585203 0.002224773747)
(15.04296435 -0.005148059272 0.003445438784)
(15.0437225 -0.006862869302 0.004242958809)
(15.04383063 -0.009086389621 0.004621184428)
(15.04306734 -0.01190697324 0.004788640806)
(15.04145488 -0.01547414888 0.004867295938)
(15.03902193 -0.01997723747 0.004872618636)
(15.03589281 -0.02567647119 0.00475433663)
(15.03187803 -0.03284028525 0.004426352507)
(15.02802612 -0.04188694258 0.003767870436)
(15.02388772 -0.05353885133 0.002671407793)