/*--------------------------------*- C++ -*----------------------------------*\
| =========                 |                                                 |
| \\      /  F ield         | OpenFOAM: The Open Source CFD Toolbox           |
|  \\    /   O peration     | Version:  2.2.1                                 |
|   \\  /    A nd           | Web:      www.OpenFOAM.org                      |
|    \\/     M anipulation  |                                                 |
\*---------------------------------------------------------------------------*/
FoamFile
{
    version     2.0;
    format      ascii;
    class       volScalarField;
    location    "5";
    object      epsilon;
}
// * * * * * * * * * * * * * * * * * * * * * * * * * * * * * * * * * * * * * //

dimensions      [0 2 -3 0 0 0 0];

internalField   nonuniform List<scalar> 
86889
(
0.1173506068
0.04959755783
0.02658847854
0.01742947494
0.01356860885
0.01219103771
0.01217736869
0.01297992375
0.01427817459
0.0158661531
0.01759996118
0.01937606877
0.02112199395
0.02279146562
0.02436116345
0.02581697977
0.0271490381
0.02835154652
0.02943572015
0.03042077654
0.03132811504
0.03216797497
0.03293639321
0.03363053787
0.03428043142
0.03493882153
0.03564815079
0.0364792674
0.03745191005
0.03852993818
0.03980054464
0.04159291328
0.04415737634
0.04675899382
0.04636907246
0.04593108323
0.04592336373
0.04625078985
0.04689763586
0.04779657104
0.04921316269
0.05085688697
0.05253609801
0.05414074176
0.05563734087
0.05694188532
0.05817171778
0.05876075929
0.06161085136
0.1569077441
0.1106576673
0.05025761923
0.02634592971
0.01615435087
0.01146877371
0.009332736698
0.008546025008
0.008556913471
0.009072876319
0.009914126426
0.01095658801
0.0121092767
0.01330696231
0.01450462021
0.01567051862
0.01678028862
0.01781752889
0.01877347407
0.01965227956
0.02045953825
0.02120416003
0.02188621948
0.02250463251
0.02306579213
0.02359021669
0.02410480558
0.024627866
0.02520633804
0.02580368797
0.02636577185
0.02677734501
0.0270115
0.02714252026
0.02713549701
0.02686948996
0.02665701397
0.026534607
0.02668278886
0.02712470553
0.02781442783
0.02895208191
0.03038432161
0.03188467569
0.03336116591
0.03477460178
0.03605782149
0.03728582452
0.0378398687
0.03970940855
0.113868677
0.1096058321
0.05157716184
0.02582588971
0.01520390904
0.01009821508
0.007672926566
0.006779546406
0.006709847585
0.00710370947
0.007773582252
0.008608710275
0.009535648718
0.01050261131
0.01147280799
0.01242082198
0.01333005987
0.01419060632
0.0149966596
0.01574495807
0.01643624706
0.01707778655
0.01767700055
0.01823538196
0.01875427651
0.01924854935
0.01973527482
0.02023445569
0.02076183003
0.02132182665
0.02185279083
0.02229907808
0.02261312316
0.02285049417
0.02298157588
0.02297427267
0.02302186784
0.02307194254
0.02336595786
0.02389473351
0.02461941195
0.0255704977
0.02679445045
0.02808861586
0.02936955777
0.03060858084
0.03173164417
0.03290994897
0.03360128748
0.03406019508
0.1069211335
0.1094092073
0.05122825115
0.02488416398
0.01446338223
0.009477936263
0.006946278434
0.00588618012
0.005694000523
0.005979243867
0.006541688441
0.007273274224
0.00810717506
0.008995800217
0.009902485938
0.01080203954
0.01167678345
0.01251419661
0.01330703234
0.01405287765
0.01475032261
0.0154006606
0.01601068659
0.01658477873
0.01712503312
0.01763956929
0.01814049954
0.01864558596
0.01916956869
0.01971416194
0.02022790915
0.02065750107
0.02096293122
0.02115420049
0.02121525593
0.02096715478
0.02101326427
0.02119855765
0.02160747768
0.02222683792
0.02299261112
0.02385192443
0.02485173371
0.02590593749
0.02695607108
0.02797352398
0.02888719711
0.02989964245
0.03066523779
0.03167184122
0.1059541729
0.10940454
0.05114040155
0.02478990609
0.01429765833
0.009258502076
0.006725952085
0.005556885832
0.005258288031
0.005433529469
0.005882163019
0.006498699584
0.007222243867
0.008008334736
0.008824441658
0.009645632485
0.01045369416
0.01123643153
0.01198569546
0.01269641957
0.01336636287
0.01399609813
0.01459095266
0.01515452988
0.01568463815
0.01619274912
0.01669165202
0.01719590953
0.01771898371
0.01826460006
0.0187908933
0.01922867437
0.01955848341
0.01977822795
0.01990287678
0.01983132525
0.01993609842
0.02026746784
0.0208021313
0.02150382245
0.02232456268
0.02321357835
0.02412556047
0.02502606806
0.02592629906
0.02682261596
0.02764546357
0.02862717241
0.02957029939
0.03062328657
0.1056689019
0.1094039668
0.05111853307
0.02477079608
0.01427256051
0.00916442849
0.006608726862
0.005409483375
0.00507358769
0.005208102211
0.005615162839
0.00619045311
0.006873436181
0.007621887082
0.008403430377
0.009193745401
0.009975129795
0.01073509041
0.0114650386
0.01215944737
0.01281554259
0.01343320825
0.01401657407
0.01457041399
0.01509292169
0.01559398631
0.01608686078
0.01658115045
0.01710475329
0.01763729742
0.01814812578
0.0185855538
0.01891325852
0.01914306307
0.019290916
0.01936377512
0.0194507809
0.01978423498
0.02032423686
0.02102621943
0.02183911124
0.02267142344
0.0234963136
0.02438287887
0.02523156763
0.02603210709
0.02682184147
0.02771083435
0.02877273574
0.0297877992
0.1051034649
0.1094033266
0.0511135236
0.02476630555
0.01426555301
0.009154765797
0.006573254457
0.005347077652
0.004992472493
0.005101943084
0.005481378386
0.006027656757
0.006681202672
0.007400175974
0.00815254558
0.008914552872
0.009668681381
0.01040262582
0.01110782427
0.01177881942
0.01241309892
0.0130102053
0.01357335694
0.01410747646
0.01461238556
0.01509480938
0.01557073063
0.01605498698
0.01656662196
0.01709755205
0.01761121195
0.01806153393
0.0184067328
0.01864862703
0.01882375091
0.01895649345
0.01908977026
0.01946498101
0.02004018728
0.02076903354
0.02160137641
0.02240146237
0.02315930457
0.02401071255
0.02487230064
0.02569984833
0.02652705735
0.0273912292
0.02848721628
0.02935280636
0.1046271939
0.1094026819
0.05111241441
0.0247655322
0.01426423354
0.009152813614
0.006570731368
0.005322308666
0.004950490814
0.005047864864
0.005414582311
0.005947574516
0.006587877126
0.007293944281
0.008033910091
0.008783981273
0.009526660871
0.0102495074
0.01094393573
0.01160423091
0.01222740158
0.01281316745
0.01336469506
0.01388719406
0.01438067437
0.01485037451
0.01531309885
0.01579043072
0.0163000628
0.01684623692
0.01737761251
0.01785012818
0.01821741306
0.01847186867
0.01865551066
0.01879898142
0.01894877676
0.0193370653
0.01992651508
0.02066445002
0.02150162766
0.02230410388
0.02306242643
0.02388161261
0.02474915502
0.02558380178
0.02642032406
0.02729241287
0.02839517793
0.02917891483
0.1043862128
0.1094020168
0.05111167535
0.02476484232
0.01426342036
0.00915185445
0.006569647645
0.00532023834
0.004935856321
0.005019393194
0.005376338129
0.005898315515
0.006526888956
0.007220783533
0.007948318871
0.008685828277
0.009415872454
0.01012587877
0.0108070831
0.01145385363
0.01206265114
0.01263278114
0.013167818
0.01367362756
0.01415236276
0.01460827344
0.01505621837
0.01552343473
0.01603505081
0.01658205807
0.01712092201
0.01760467935
0.017990424
0.01825961264
0.01844827353
0.01860033024
0.01877303607
0.01918684419
0.01979289125
0.02054214452
0.02138639851
0.02219272011
0.02295146771
0.02379757903
0.02465662222
0.02549142671
0.02632992711
0.02720149578
0.0283019533
0.0287923067
0.1037576519
0.1094013538
0.05111119551
0.0247645584
0.0142632256
0.009151690103
0.006569465992
0.005318805312
0.004933264186
0.005004110835
0.005356807146
0.005874209742
0.006498484888
0.007188257689
0.007911726966
0.008645102986
0.009370829844
0.01007607343
0.01075158479
0.0113917253
0.01199222378
0.01255431586
0.01308103751
0.01357816229
0.01405043415
0.0144946874
0.01492954741
0.01539169404
0.01590087249
0.01644428124
0.01698254659
0.01746836696
0.01785529797
0.01813181825
0.01830483341
0.01843037994
0.01863523894
0.01907769811
0.01970448696
0.02046419138
0.02131549222
0.0221338191
0.02296410962
0.02384106188
0.02467121149
0.02551104012
0.02634513544
0.02721204097
0.02830996776
0.02881352739
0.1037723183
0.1094006919
0.05111065039
0.02476411147
0.01426283018
0.009151309115
0.006569091492
0.005318134364
0.00493239286
0.005003347549
0.005355783929
0.00587243213
0.006495578278
0.007183893561
0.007905465591
0.008636385665
0.00935888182
0.01005971573
0.0107292446
0.0113625095
0.01195504988
0.01250952777
0.01302384902
0.01350397959
0.01395349171
0.01436661934
0.01476951426
0.01521163247
0.0157070422
0.01625007325
0.01678970603
0.01728610415
0.01770119266
0.01801121705
0.01819329017
0.01829861997
0.01853974092
0.01896744823
0.01958862691
0.02036659891
0.0212258901
0.02210356336
0.02301045348
0.02389235395
0.02472275498
0.02556277915
0.02638071218
0.0272313299
0.02831085719
0.02840807437
0.1030480317
0.1094001036
0.0511102177
0.02476383263
0.01426262203
0.009151125297
0.006568911051
0.005317271011
0.004930983569
0.005001795981
0.005353906034
0.00587029432
0.006493245942
0.007181432769
0.007902725852
0.008632696237
0.009353949131
0.01005142797
0.01071696827
0.01134516754
0.01193251621
0.01247552346
0.01297090341
0.01342002475
0.01382584932
0.01418168442
0.01453853265
0.01493614098
0.01541128793
0.01595438499
0.01650040333
0.01699704329
0.01743891758
0.01774486835
0.01796107479
0.01821330687
0.01868532822
0.01920111347
0.01962472463
0.02037950534
0.02126659221
0.02221902
0.02316577558
0.02408207691
0.02494287668
0.02579088345
0.02661058104
0.02746370771
0.02854811632
0.02913076885
0.1042281076
0.1093995442
0.05110981396
0.02476353607
0.01426237391
0.009150892328
0.006568682379
0.00531680829
0.004930280361
0.005001251628
0.00535330087
0.005869367251
0.006491692544
0.007178944855
0.007899039179
0.008626865596
0.009344715145
0.01003804089
0.01069790879
0.0113198064
0.01189575075
0.0124152026
0.01287085035
0.01327002672
0.01358171719
0.01382900297
0.01405822574
0.01435379721
0.01478061574
0.01537225793
0.01604414316
0.01670066757
0.01728747099
0.01769596026
0.01784801488
0.01836333152
0.01818140206
0.01842004516
0.01890847152
0.0195887103
0.02055055812
0.0215645288
0.02256351989
0.02351747859
0.02440378153
0.02529968565
0.02616344924
0.02705369999
0.02815932064
0.028036881
0.1024946229
0.1093990742
0.05110944072
0.02476327785
0.01426217563
0.009150725988
0.006568519566
0.005316305213
0.004929568545
0.005000618856
0.005352424532
0.005868125081
0.006490077372
0.007176911566
0.007896099064
0.00862282614
0.009337782279
0.01002750628
0.01068375497
0.01129826752
0.01186025703
0.0123458335
0.01275045853
0.0130536891
0.01322210398
0.01326076276
0.01329779325
0.01342462563
0.01368307551
0.01423884481
0.01494312341
0.01571912187
0.01639362998
0.01681526233
0.01742543122
0.01844667416
0.01983234666
0.02025185677
0.02028774086
0.02080551044
0.0217331664
0.02270723024
0.02359578356
0.02440645965
0.02523320343
0.02604893975
0.026836942
0.02765181991
0.02867963276
0.02885629877
0.1031817352
0.1093986762
0.05110911416
0.02476303238
0.01426197596
0.009150553003
0.006568352545
0.005315987537
0.004929230707
0.005000523189
0.005352215675
0.00586763751
0.006489130234
0.00717530608
0.007893473354
0.008618475094
0.009330128265
0.01001462323
0.01066356884
0.01126705149
0.01180596239
0.01225277693
0.0125819891
0.01274012258
0.01273566776
0.01281167149
0.0129636689
0.01318905295
0.01338677766
0.01416818057
0.01505501776
0.01611366518
0.01704914318
0.01758207201
0.01823934981
0.01888445213
0.02115967946
0.02491182669
0.03107038672
0.03258784049
0.03316586
0.03323632188
0.0332210315
0.03302949959
0.03268581867
0.03233848583
0.03200323786
0.03186352224
0.03204430371
0.03321991242
0.1069112352
0.1093983896
0.05110888587
0.02476287069
0.01426185238
0.00915045604
0.00656825631
0.005315734079
0.004929002049
0.005000405569
0.00535219509
0.005867351718
0.006488511622
0.007174249528
0.007891679949
0.008615372387
0.009324429124
0.01000421974
0.01064373411
0.01123216352
0.01174766075
0.01214780409
0.0123837712
0.01237969883
0.01245134413
0.01260444423
0.01285729989
0.01325886685
0.01292432106
0.01342684191
0.01305313425
0.01378446889
0.01495320839
0.01598852187
0.01673507101
0.01786157599
0.01955157842
0.02055005645
0.02118563775
0.0228164839
0.02415820899
0.02502634273
0.02576300474
0.02638416684
0.0268364195
0.02748307757
0.02810593416
0.02877398371
0.02968146719
0.0304948327
0.1052012423
0.1093982069
0.05110873755
0.02476276014
0.01426176425
0.009150381519
0.006568185568
0.005315602271
0.004928973132
0.005000459459
0.005352813619
0.00586792682
0.006488803646
0.00717412029
0.007890868194
0.008613451013
0.009320348915
0.00999677077
0.01062922566
0.01120288887
0.01170137092
0.01206023098
0.01222056915
0.01221085659
0.01232826287
0.01260841925
0.01305891991
0.01359802631
0.0139010337
0.01449375146
0.01422953534
0.01541031581
0.01804514697
0.02073228802
0.0211905403
0.02122193508
0.02093920971
0.02102754438
0.02161897165
0.0235189896
0.02540602822
0.02679650173
0.02763081686
0.02784465752
0.02789223339
0.02833252717
0.02878169006
0.02929435905
0.03006317973
0.03035419889
0.1046058195
0.1093981459
0.05110869517
0.02476273167
0.01426174297
0.009150365154
0.00656817016
0.005315558607
0.004928946614
0.005000395009
0.005353032523
0.005868169422
0.006488938815
0.007174099122
0.007890604997
0.008612898663
0.009318798772
0.009994547553
0.01062117391
0.01119137321
0.01166945006
0.01200309835
0.01207917931
0.01206265209
0.01220516966
0.01257045592
0.01294749534
0.01336578846
0.01400636894
0.01376576376
0.01824151614
0.02301919928
0.03058599541
0.03781436187
0.03681975356
0.03531485079
0.03426460126
0.0323453254
0.03117503822
0.03059328441
0.03172318656
0.03298124477
0.0335636442
0.03365958784
0.03345355929
0.03343495003
0.03340885004
0.03355741314
0.03361889707
0.03454425568
0.1075603354
0.1093982011
0.0511087537
0.0247627732
0.01426177311
0.009150389464
0.006568192948
0.005315604621
0.004928917828
0.005000413085
0.005352556032
0.005867657869
0.006488567601
0.007173908634
0.007890680752
0.00861328485
0.009320208265
0.009996586175
0.01062909141
0.01120274378
0.01170118939
0.01206001234
0.0122202504
0.01221212731
0.01232916488
0.01260939165
0.01306018113
0.01359903007
0.01390141617
0.01525072324
0.01784887524
0.02697269767
0.04452130769
0.06380689321
0.05547498489
0.04957580305
0.05038961712
0.04338215702
0.03968681194
0.03721389622
0.03540354419
0.03432239004
0.03369310268
0.03282593948
0.03185076762
0.03134590795
0.03097219127
0.03077029508
0.03092905808
0.0310455086
0.1028944533
0.1093983773
0.05110890164
0.02476288618
0.01426186276
0.009150465193
0.006568266525
0.005315754434
0.004928977418
0.005000373866
0.005352081444
0.005867281613
0.006488489969
0.00717426564
0.007891728471
0.008615447033
0.00932453164
0.01000432772
0.01064396536
0.01123231271
0.01174793885
0.01214819997
0.01238396107
0.01238015699
0.01245120409
0.01260313122
0.01285543194
0.01325882382
0.01293017727
0.01404701705
0.01973593092
0.03691873322
0.07210737439
0.1801060909
0.1408250356
0.1134450432
0.1018806965
0.08135418373
0.06610571205
0.05644860347
0.05002578165
0.04485021977
0.04101461011
0.03804400535
0.03566896521
0.03389598963
0.03251645738
0.03148496878
0.03095838579
0.03036381603
0.09878650155
0.1093986643
0.05110912752
0.02476304796
0.01426199391
0.009150573835
0.006568373226
0.005316011748
0.004929221404
0.00500046148
0.005352171951
0.005867642518
0.006489164086
0.007175360918
0.007893540539
0.008618562776
0.009330225924
0.01001483509
0.01066379181
0.01126736959
0.01180611322
0.01225282464
0.01258177978
0.01273999744
0.01273489315
0.01280834279
0.0129591224
0.01318763315
0.01371457367
0.01600271516
0.02408783044
0.04469866584
0.09173393162
0.3013816088
0.0304921524
0.03072256701
0.04244927436
0.04232347667
0.04313474277
0.04286301788
0.04243013514
0.04204029892
0.04182230038
0.04169366212
0.04152928444
0.04137513314
0.0412243497
0.04118666317
0.04151345479
0.04176879003
0.1167321958
0.1093990524
0.05110944997
0.02476329107
0.01426219201
0.009150741907
0.006568539077
0.00531634938
0.004929612536
0.005000634359
0.005352509928
0.005868267899
0.006490249966
0.00717711719
0.0078963277
0.008623082114
0.009338043688
0.01002790864
0.01068410694
0.01129907907
0.01186099695
0.01234658402
0.01275114725
0.01305446296
0.01322399091
0.0132672663
0.01330660409
0.0134331643
0.01387980477
0.01583320028
0.02214515058
0.03912588347
0.07343248082
0.1807718937
0.1419751321
0.1137473049
0.09612439662
0.0775123035
0.06274588943
0.05321745396
0.04742952854
0.04325844271
0.04039182075
0.03821475057
0.03650963129
0.03519891491
0.03419913663
0.03359532107
0.03303398163
0.03311073859
0.1045567227
0.109399522
0.05110980961
0.02476353711
0.0142623811
0.009150904672
0.006568699296
0.005316838102
0.004930350821
0.005001279951
0.005353366261
0.00586945569
0.006491810818
0.007179099363
0.007899163688
0.008627033516
0.009344875376
0.01003830099
0.01069812974
0.01132016109
0.01189635891
0.01241591666
0.01287170492
0.01327376069
0.01359391715
0.01384825693
0.01406792836
0.01437880054
0.01487229522
0.01621749304
0.01973978042
0.02901883136
0.04607598504
0.06438058787
0.05614389487
0.04927439354
0.04444900079
0.03938135945
0.03571411696
0.03322011247
0.03179616856
0.0308588832
0.03021906859
0.02978246942
0.02947765399
0.02932064802
0.02926756902
0.02934474528
0.02974328694
0.02961746102
0.1024505253
0.1094000667
0.05111019261
0.02476381768
0.0142626134
0.009151129412
0.006568924974
0.005317340764
0.004931122862
0.005001922233
0.005354082533
0.00587048858
0.006493508119
0.007181723974
0.007903034675
0.008633092676
0.009354346902
0.01005197512
0.01071754862
0.01134590845
0.01193348423
0.01247681198
0.01297275141
0.01342859962
0.01384555212
0.01420875301
0.01456559801
0.01496657469
0.01544478697
0.01621198518
0.01777210409
0.02154535537
0.02825364617
0.03432265636
0.03163101104
0.02947424789
0.02798536905
0.02661463951
0.02564721537
0.02533545966
0.02531600987
0.02548482024
0.0257493893
0.0260707398
0.02641101457
0.02684363849
0.0272983685
0.02781903346
0.0285945232
0.02837663874
0.1019652458
0.1094006557
0.05111063015
0.02476410375
0.01426283136
0.009151319771
0.006569109608
0.00531817625
0.004932468042
0.005003396809
0.005355873678
0.005872549607
0.006495709213
0.007184011108
0.007905589849
0.008636509603
0.009359035546
0.01005988153
0.01072949112
0.01136275592
0.01195551135
0.01251000507
0.01302516402
0.01350844696
0.01396245085
0.01437730334
0.01477981688
0.01521967522
0.01571395449
0.01629238777
0.01709173886
0.01848502214
0.02076573227
0.02282956661
0.02222485955
0.02164608504
0.02140574128
0.02138535901
0.02162569565
0.02208665411
0.0226781604
0.02332422579
0.02403194275
0.02473932168
0.02541619086
0.02611108472
0.02679949964
0.02753216375
0.02850432263
0.02873869897
0.1032459611
0.109401306
0.05111114975
0.02476452563
0.01426321209
0.00915168538
0.0065694732
0.005318893489
0.004933426111
0.005004266044
0.005357020893
0.005874489448
0.006498818665
0.007188653915
0.007912211173
0.008645679169
0.00937153406
0.01007689921
0.0107525621
0.01139287907
0.01199352461
0.01255582264
0.01308259296
0.01357975574
0.01405267991
0.01449609329
0.01492971224
0.01539076574
0.01590125017
0.01644908988
0.01703650741
0.01768679279
0.01848603927
0.01917144528
0.01918099414
0.01906773347
0.01920904811
0.01957323525
0.02012102694
0.02081074764
0.02159909669
0.02236237899
0.02314556863
0.02398253271
0.02477744918
0.02558692852
0.02639352132
0.02723566707
0.02830726472
0.0287586893
0.1036034028
0.1094019669
0.05111161884
0.02476481061
0.01426341352
0.009151870529
0.006569678338
0.005320364667
0.004935985967
0.005019496403
0.005376488229
0.005898482342
0.006527015558
0.007220857568
0.007948357673
0.008685840526
0.009415888645
0.01012591244
0.01080716122
0.01145400939
0.01206291537
0.01263312225
0.01316829234
0.0136742374
0.0141533172
0.0146090834
0.01505606025
0.01552294431
0.01603553255
0.01658270145
0.01712625545
0.01763089239
0.01808332517
0.01843585323
0.01861517744
0.01868080215
0.01885430097
0.01926882854
0.01987357263
0.02061838949
0.0214570961
0.02225794766
0.02301251772
0.02385655792
0.02471529987
0.025546243
0.0263823808
0.02725316606
0.02835442359
0.02899203353
0.1040833277
0.1094026216
0.0511123229
0.02476546204
0.01426418619
0.009152787169
0.006570718486
0.005322156311
0.004950320342
0.005047768051
0.00541459306
0.005947669566
0.006588070136
0.007294273238
0.008034395461
0.008784639309
0.009527529104
0.01025059853
0.01094528268
0.01160579436
0.0122291122
0.01281496077
0.01336639995
0.01388843301
0.014381575
0.01485036958
0.01531180526
0.01578869672
0.01629771536
0.01684401115
0.01737607856
0.01784855351
0.01822558398
0.01848881062
0.01866410928
0.01879730757
0.01894539829
0.01933642729
0.0199265668
0.02066527612
0.02150329971
0.02230722049
0.0230675504
0.0238898687
0.02475860324
0.02559482068
0.02643309345
0.02730712383
0.02841276008
0.02924303862
0.1044994055
0.109403265
0.05111346003
0.02476626973
0.01426554364
0.00915477439
0.006573265079
0.005347228547
0.004992839838
0.005102457764
0.005482359172
0.006028649812
0.006682003507
0.007400812011
0.00815307829
0.008914990231
0.009669068625
0.01040296708
0.01110808057
0.01177891584
0.01241284371
0.01300960796
0.01357268716
0.01410680434
0.01461168525
0.0150935096
0.01556951447
0.01605394682
0.01656462083
0.01709702171
0.01760909432
0.01805928118
0.01840636786
0.01865205555
0.01883177133
0.01897037106
0.01910440861
0.01947729548
0.02005200838
0.02078083459
0.02161360562
0.02241458788
0.02317391716
0.02399737339
0.0248606719
0.02569330019
0.02652606074
0.02739593246
0.02849877603
0.02943845649
0.1047880935
0.1094038958
0.0511183766
0.0247706591
0.01427245251
0.009164323372
0.006608653345
0.005409273194
0.005073261499
0.005207608082
0.005614185696
0.00618957083
0.006872628972
0.007621335549
0.008403204062
0.009193866771
0.009975590628
0.01073577912
0.01146583815
0.01216033929
0.01281651342
0.01343453108
0.01401828385
0.01457267036
0.0150960372
0.01559644517
0.01608915909
0.01658691114
0.01710846191
0.01764254389
0.01815433542
0.01859000091
0.01891941569
0.01915138448
0.01930323214
0.01937942026
0.0194637125
0.01979480025
0.02033314242
0.02103430047
0.02184720476
0.02268045858
0.02350706899
0.02436468155
0.02521483453
0.02602019402
0.02681490639
0.02773568402
0.02879864526
0.02985145044
0.1052026383
0.1094044814
0.05114048877
0.02479000463
0.01429771364
0.009258558077
0.006726042002
0.005557630642
0.005259510253
0.005434998954
0.005883778215
0.006500405654
0.007224319463
0.008010607162
0.008827477964
0.009648843524
0.0104568485
0.01123956624
0.01198883479
0.01269964241
0.01336986864
0.0139999016
0.01459508071
0.01515923999
0.0156906823
0.01620113288
0.01669707075
0.01720443806
0.0177268857
0.01826794223
0.0187960225
0.01923618115
0.01956784963
0.01979221448
0.01992276344
0.01985354946
0.01995422853
0.02028282489
0.02081612125
0.0215173342
0.02233840655
0.02322701003
0.02413913507
0.02504760551
0.02596505029
0.0268791582
0.02771594923
0.02870524004
0.02964283759
0.03072613182
0.1057935286
0.1094173846
0.0512318106
0.02488721584
0.01446519993
0.009479061842
0.006947009739
0.005886138761
0.005693498522
0.005978572181
0.006540980481
0.007272669284
0.008106765121
0.008995655285
0.009901953319
0.01080191694
0.01167686596
0.0125143133
0.01330742479
0.01405401488
0.01475196873
0.01540246908
0.01601271488
0.01658719383
0.01712726827
0.01764393635
0.01814470698
0.0186506212
0.01917681679
0.01971855482
0.02023078748
0.02065519283
0.02096241825
0.02115914391
0.021224743
0.02097687601
0.02102303517
0.0212083284
0.02161728105
0.02223680138
0.02300247164
0.02386194989
0.02486857901
0.02593262206
0.02699495074
0.02802565358
0.0289543089
0.02996572154
0.03072628098
0.03175870212
0.1060251928
0.1096137308
0.0515813754
0.02583022345
0.01520670264
0.01010020453
0.007676382293
0.006783680277
0.006714302174
0.007108712445
0.007779167448
0.008614853755
0.009542406759
0.01050999561
0.01148080384
0.01242914652
0.01333930993
0.01420103242
0.01500822559
0.01575672621
0.01644867288
0.01708961642
0.01768870871
0.01824653174
0.0187664117
0.01926059498
0.01974832277
0.02024818598
0.02077765056
0.02133878534
0.02187238806
0.02231748889
0.02263138442
0.0228702409
0.02300372226
0.02300218294
0.02304610105
0.02309226429
0.02338415661
0.02391041506
0.02463335312
0.02559393911
0.0268258695
0.02813236668
0.02942368531
0.03067598729
0.03179828428
0.0329912363
0.03370522534
0.03419692457
0.1070355703
0.1106576629
0.05025755285
0.0263453535
0.01614963824
0.01146242372
0.0093268867
0.008540518122
0.008551377062
0.009067263127
0.009908429166
0.01095070822
0.01210321508
0.01330072856
0.01449804751
0.01566345066
0.01677310335
0.01781008126
0.0187667837
0.01964516514
0.02045327628
0.02119640479
0.02187831159
0.02249678833
0.02305856131
0.02358202576
0.02409975577
0.02462707645
0.02520509949
0.02581044881
0.02636708447
0.02677964124
0.02701194032
0.02715192591
0.02715070596
0.02689150074
0.02667733937
0.02655277721
0.02669909108
0.02713963755
0.02782834495
0.02897319084
0.03041292865
0.03192282415
0.03340934501
0.0348358859
0.03613183435
0.037385151
0.03794247555
0.03981182522
0.1139592032
0.1173505318
0.0495973941
0.02658844744
0.01743026565
0.01357108298
0.01219484368
0.0121814475
0.01298360641
0.01428132613
0.01586862328
0.01760165393
0.01937689877
0.02112186395
0.02279068085
0.02435964933
0.02581499278
0.02714610055
0.02834779168
0.02943053524
0.03041558546
0.03132400597
0.03216487614
0.03293344555
0.03362784343
0.03427242063
0.03492096654
0.03562966875
0.03644986715
0.0374241246
0.03851201872
0.03978265226
0.04156945743
0.04414514773
0.04674639902
0.04637656636
0.04593969963
0.04593305137
0.04626236509
0.04691095805
0.04781257193
0.04924470139
0.05090230619
0.05259361139
0.05421080237
0.05571676822
0.05703049775
0.0582628649
0.05886156
0.06173814905
0.1569740438
0.1103609052
0.04587605551
0.02162298233
0.01249994255
0.008517560262
0.00674819583
0.006075664381
0.006030550181
0.006384048424
0.007004481439
0.007804162099
0.008718410499
0.009696872325
0.01069977941
0.01169669521
0.01266508144
0.01358903303
0.0144564218
0.01526023103
0.01599714238
0.01667169948
0.01728801332
0.01784675962
0.01834598895
0.0187963018
0.01921242417
0.0196289118
0.02005059421
0.02058588926
0.02141582786
0.02313684753
0.02654953301
0.03221569763
0.03862622844
0.03735100696
0.0347603048
0.03293253823
0.03152287562
0.03061174646
0.03005385392
0.02979097301
0.02975286661
0.02986510608
0.0300628346
0.03029665721
0.03053175425
0.03075480738
0.03123104473
0.0319771585
0.1051119519
0.1003267339
0.04236354661
0.02071876639
0.01103674473
0.006477174678
0.004105570458
0.002768008557
0.00196344554
0.001454051476
0.001118168371
0.0008895340147
0.0007300640991
0.0006168226456
0.0005354302375
0.0004765462171
0.000433898487
0.0004031128271
0.0003811491873
0.0003659344786
0.0003560628685
0.0003509322093
0.0003502369078
0.0003544799127
0.000365067016
0.000384492929
0.0004167181996
0.0004656691119
0.0005371251476
0.0006340681595
0.0007617271431
0.0009287661922
0.00115653433
0.001471675464
0.001853736691
0.002106698551
0.002386778156
0.002701831382
0.003044645221
0.003418378153
0.003806997004
0.004198246081
0.004579110931
0.00493805766
0.00526643125
0.005559077005
0.00581377959
0.006022743361
0.007985753853
0.007978151393
0.01595278102
0.09870644654
0.04169511637
0.02048568603
0.01095699612
0.006447508666
0.004090514746
0.002755404802
0.001948522796
0.001434573306
0.001092892422
0.0008576784972
0.0006911141522
0.0005704679413
0.0004815546947
0.0004152049276
0.0003653337485
0.0003277611138
0.0002996907337
0.000279132847
0.0002648787394
0.0002562163265
0.0002530094271
0.000255791228
0.0002658240144
0.000285283422
0.0003174260866
0.0003663441593
0.0004360635885
0.0005312681296
0.0006549317824
0.0008093245821
0.0009960662085
0.001216827964
0.001470279262
0.001753698329
0.002051865447
0.002374246148
0.002717046477
0.003095371435
0.003486354899
0.003871554038
0.004239675962
0.004581559147
0.004891542588
0.005166397732
0.005407796159
0.005615651913
0.007679276859
0.007654671556
0.01182382095
0.09880069434
0.04216212883
0.02081451393
0.01101700163
0.006481763749
0.004107601902
0.002763853011
0.001952422812
0.001435991881
0.001092939319
0.0008569668748
0.0006900082694
0.0005691940622
0.0004802220689
0.0004138664407
0.0003640043161
0.0003264735953
0.0002983887862
0.0002777790592
0.0002633480168
0.0002544031356
0.0002508074206
0.0002530966148
0.0002625505481
0.0002812641933
0.0003125506566
0.0003600565045
0.0004281882714
0.0005211476668
0.0006420994691
0.0007928944062
0.0009747786917
0.001188695036
0.001432739853
0.001701289079
0.00199477689
0.00231778958
0.002660177887
0.003009434893
0.003364401744
0.003711913185
0.004039765943
0.00433939867
0.004605741753
0.004836819874
0.005036324822
0.005550018676
0.009146084251
0.009042282786
0.01298445328
0.09920875804
0.04287530013
0.02082348548
0.01093814914
0.00644755558
0.004087370129
0.002750111416
0.001942267251
0.001427754061
0.001085594753
0.000849838278
0.0006826254068
0.0005612107817
0.0004713939446
0.0004040005996
0.0003529417798
0.0003140898083
0.0002845921922
0.000262492749
0.0002465117917
0.0002359517471
0.0002307183997
0.0002313057935
0.0002390090064
0.000255839694
0.0002850611073
0.0003304159459
0.0003960547271
0.0004863189494
0.000604324341
0.0007529982465
0.0009336203674
0.00114638085
0.001389742354
0.001659347628
0.001957658351
0.002284465554
0.002629580634
0.002980282513
0.00332470541
0.003655682479
0.003966082692
0.004248037168
0.004496599306
0.004712888377
0.005260160784
0.006004915722
0.009414433751
0.00924578416
0.01309402205
0.09920928015
0.04287344149
0.02082688588
0.01093254491
0.006446697335
0.00407826789
0.002744070859
0.001937929671
0.001424407924
0.001082851742
0.0008474881629
0.0006805394847
0.0005593148878
0.0004696355058
0.000402340808
0.000351348735
0.0003125304507
0.0002830318565
0.0002608790724
0.0002447763306
0.000234015898
0.0002284951296
0.0002287482061
0.0002360754249
0.0002525004228
0.0002813002943
0.0003261103699
0.0003912867156
0.0004533474251
0.000573606006
0.0007866196541
0.001002082578
0.001208847911
0.00144394911
0.001709489061
0.002005551944
0.002330362978
0.002673439532
0.003021996462
0.003363971485
0.003686389527
0.003982157155
0.004244986526
0.004505971405
0.004852406598
0.005693530857
0.006360646484
0.009571560754
0.009386591614
0.01314665948
0.09920878856
0.04287219342
0.02082745634