/*--------------------------------*- C++ -*----------------------------------*\
| =========                 |                                                 |
| \\      /  F ield         | OpenFOAM: The Open Source CFD Toolbox           |
|  \\    /   O peration     | Version:  2.2.1                                 |
|   \\  /    A nd           | Web:      www.OpenFOAM.org                      |
|    \\/     M anipulation  |                                                 |
\*---------------------------------------------------------------------------*/
FoamFile
{
    version     2.0;
    format      ascii;
    class       volScalarField;
    location    "5";
    object      k;
}
// * * * * * * * * * * * * * * * * * * * * * * * * * * * * * * * * * * * * * //

dimensions      [0 2 -2 0 0 0 0];

internalField   nonuniform List<scalar> 
86889
(
0.0136157051
0.008933527171
0.007385530269
0.007156869727
0.007789775847
0.00907241667
0.01083929007
0.01294665927
0.01526909491
0.01770823736
0.02018860348
0.02265231183
0.02505706933
0.02737559256
0.02959481579
0.03170648327
0.03370434267
0.03558487507
0.0373569397
0.03903594434
0.04063891106
0.04217526978
0.04364505917
0.04505164918
0.0464253343
0.0478170751
0.04927450262
0.0508636712
0.05261372196
0.05451374469
0.0566373733
0.05923462862
0.06249440165
0.06593013311
0.06754316937
0.06931788524
0.07159510197
0.07431315541
0.07742519912
0.08081603664
0.08459509222
0.08848670985
0.09229003833
0.09587026048
0.09915901855
0.1020748197
0.104665525
0.1066565833
0.1096419296
0.1640993209
0.01309531107
0.009722214449
0.007202890405
0.006115903441
0.005909458843
0.006321656675
0.007190263753
0.00839520597
0.009840847486
0.01144887509
0.01315423714
0.01490393567
0.01665820694
0.01838892853
0.02007535423
0.02170033436
0.02325176344
0.02472314414
0.02611805671
0.02744128067
0.02869973281
0.02989367579
0.03102359013
0.03209791043
0.03313887349
0.03417665749
0.03523671872
0.03636583968
0.03754603729
0.03874508817
0.03989036353
0.04098883121
0.04213498269
0.0433535821
0.04459760982
0.04615916622
0.04809217236
0.05059584134
0.05359696801
0.05697831841
0.06083103657
0.0649413628
0.06903939827
0.0729766264
0.07666256017
0.08000227542
0.08302748066
0.08525597073
0.08803988504
0.1380840221
0.01300593604
0.01050153305
0.007002786937
0.005417911562
0.004707849569
0.004691891201
0.005304844177
0.006296274071
0.007510071739
0.008857371433
0.01028109738
0.01174013974
0.01320357026
0.014648373
0.01605808907
0.01742164858
0.01873225103
0.01998578377
0.02117993469
0.02231554039
0.02339891217
0.02443699097
0.02543286358
0.02639102834
0.02732868822
0.0282676157
0.02923428378
0.03025347382
0.03134199905
0.03246855209
0.03361138211
0.03476614263
0.03601385625
0.03738010848
0.03888020911
0.04070747832
0.04282449551
0.04549978857
0.04862055444
0.05207608628
0.05581624855
0.05979668317
0.06376589213
0.06758194121
0.07116213463
0.07440488351
0.07741595036
0.07979803048
0.08174353366
0.131540169
0.01298775839
0.01028593936
0.006645147766
0.005058408972
0.004322683121
0.004104097564
0.004497625986
0.005351012792
0.006466226882
0.007733737911
0.009092616796
0.01050315408
0.01193489283
0.01336266041
0.01476871901
0.01614021807
0.01746766762
0.01874545401
0.0199717151
0.02114543662
0.02226820214
0.02334675687
0.02438661987
0.02539268487
0.02637685965
0.02735717668
0.02835906332
0.02940742898
0.03051760134
0.03166371925
0.03282404814
0.0339977373
0.03523340611
0.03656387086
0.03789165412
0.03972964711
0.04196032253
0.04470072819
0.04788381872
0.05137258503
0.0550422751
0.05884576395
0.06262806716
0.06626449768
0.0696701305
0.07274280225
0.07561225388
0.07807316595
0.08054193411
0.1310073303
0.01298741318
0.01023148127
0.006596728579
0.004975846563
0.004189545328
0.003937555889
0.004196066335
0.004935356846
0.005944032851
0.007108561397
0.008368019795
0.009686585199
0.01103520495
0.01239137732
0.01373691862
0.0150580813
0.01634544707
0.01759253095
0.01879522715
0.019951874
0.02106351935
0.0221358143
0.02317364752
0.02417830192
0.02516507654
0.02615344467
0.02716733967
0.02823184539
0.02936523975
0.03054928284
0.03174827447
0.03297751412
0.03427675523
0.03570345876
0.03721747427
0.03915710493
0.04157779288
0.04446494457
0.04774433459
0.05130593957
0.05502540229
0.05877883323
0.06245547491
0.06598734835
0.06930878878
0.07231703119
0.07520025752
0.07786051993
0.0803661609
0.1311638607
0.0129873076
0.01021824166
0.006584399574
0.004959562314
0.004133340295
0.003848780463
0.004058676144
0.004750287824
0.00571281845
0.006833757511
0.008052242541
0.009332017482
0.01064558735
0.01197012676
0.01328767445
0.0145847372
0.01585152157
0.01708108072
0.01826883738
0.01941261099
0.02051283792
0.0215741922
0.02260265501
0.02359982856
0.02457983898
0.0255628515
0.02656882972
0.02763586539
0.02876177128
0.02993628498
0.03113954622
0.03237596583
0.03369634812
0.03515801284
0.03680937638
0.03875376099
0.04120042362
0.04411056774
0.04740620877
0.05097849971
0.05466143397
0.05835363886
0.06204340377
0.06555547412
0.06882334985
0.07183756276
0.07471440329
0.07752839325
0.08002343453
0.1309450995
0.01298724173
0.01021565205
0.006581546788
0.004955176284
0.00412685164
0.003822928157
0.004001736378
0.004665824325
0.00559549134
0.006681806171
0.007864853878
0.009109151321
0.01038740123
0.01167695948
0.01296028963
0.0142240043
0.01545844452
0.01665667714
0.01781420077
0.01892908907
0.0200014845
0.02103528053
0.02203663695
0.02300860776
0.02396266105
0.02492154308
0.02591010647
0.02695918315
0.02807783659
0.02925395111
0.03047101241
0.03173111267
0.03307602393
0.03457866428
0.03630323153
0.03830960704
0.04081763072
0.04378436416
0.04713036369
0.05074835323
0.05442364224
0.05807649163
0.0617607685
0.0653094593
0.06862395428
0.07170283322
0.07459031034
0.07745606084
0.07983733822
0.1307296043
0.01298718424
0.01021513382
0.006580947963
0.004954216332
0.004125387037
0.003820894751
0.003978721744
0.004619696644
0.005530093924
0.006596878754
0.007760078105
0.008984766172
0.01024389418
0.01151494599
0.01278032853
0.01402665553
0.01524413315
0.01642579088
0.01756686467
0.01866495408
0.01972032381
0.02073681026
0.02172083302
0.02267558406
0.02361115446
0.02455114539
0.02552652052
0.02656749291
0.02769683149
0.02889108675
0.0301330981
0.03142005881
0.03278539295
0.03430614051
0.03605188439
0.03808549036
0.04062109206
0.04361673934
0.04698721464
0.05062714881
0.05432356825
0.05799637589
0.06166898562
0.06524235489
0.0685788836
0.07168206979
0.07458965919
0.0774723078
0.07979113468
0.1306455976
0.01298712529
0.01021502772
0.006580783354
0.004953950084
0.004124980853
0.003820328663
0.003977010559
0.004603983704
0.005495390358
0.006547281625
0.007694283016
0.008902014824
0.01014370485
0.01139702577
0.0126445149
0.01387284555
0.01507210362
0.01623515807
0.01735731156
0.01843564194
0.01946998813
0.02046450928
0.02142632092
0.02236140349
0.02327907119
0.02420051776
0.02516140809
0.02619899795
0.02732742899
0.02852767436
0.02978083411
0.03108741945
0.03247134057
0.0340041946
0.03576676493
0.03783213367
0.04040380887
0.04342892675
0.04682592264
0.05049008712
0.05420886236
0.05790059906
0.06161715002
0.06520187938
0.06854924287
0.07166532493
0.07458015875
0.07746738289
0.07957010834
0.1302887743
0.01298706712
0.01021493629
0.006580709367
0.004953879578
0.004124898037
0.003820210047
0.003975379699
0.004600907856
0.005476094479
0.006521177899
0.00766106996
0.008862021116
0.01009716916
0.0113440739
0.01258515769
0.01380698234
0.01499937755
0.0161547465
0.01726833854
0.01833651836
0.01936090862
0.02034605596
0.0212990984
0.02222811287
0.02313624264
0.02404692261
0.02500379435
0.02603926586
0.02716162712
0.02835890923
0.02961301608
0.03092204891
0.03231593698
0.03384114496
0.03558788997
0.0376865244
0.04028958902
0.04333938536
0.04675169486
0.05043174583
0.05417395517
0.0579503791
0.06170900794
0.06527943306
0.06864646175
0.0717635349
0.07467627058
0.0775627124
0.07967864875
0.1303885874
0.01298700875
0.01021489126
0.006580649529
0.004953807882
0.00412480442
0.003820090372
0.003974890859
0.004600180171
0.005475508524
0.006520365556
0.007659525053
0.008859364448
0.01009307193
0.01133810022
0.01257675518
0.01379538533
0.01498342032
0.01613286941
0.01723958035
0.01830004403
0.01931780951
0.0202933649
0.02123351178
0.02214325994
0.02302400341
0.02390675685
0.02484606656
0.02586824602
0.02698594883
0.02817887637
0.02943858596
0.03077108648
0.03219703078
0.03373743879
0.0354805648
0.03761381303
0.04019077509
0.04323625825
0.04667753347
0.0503743557
0.05418833418
0.05805012032
0.0618208345
0.06539786776
0.06877389152
0.07187051606
0.0747627654
0.07762655883
0.07943922148
0.1299641584
0.01298695707
0.01021483216
0.006580599262
0.004953761162
0.004124749019
0.003820017943
0.003973985755
0.004598587636
0.005473698029
0.006518167932
0.007657041764
0.00885670159
0.01009034206
0.01133520349
0.01257309571
0.01379070199
0.01497574006
0.01612151502
0.01722357239
0.01828038595
0.01929009285
0.02025093761
0.02116555284
0.02203743525
0.02286593134
0.02370657154
0.02460502061
0.02560587824
0.02672000512
0.02791470385
0.02917473034
0.0305336223
0.03195816533
0.03354411035
0.03544789358
0.03779717078
0.04041557982
0.04324416881
0.0467074606
0.05047448938
0.05440136409
0.05833048552
0.06215620327
0.06577895205
0.06917694388
0.07228077493
0.07517645094
0.07804207695
0.08019671732
0.1309446923
0.01298690788
0.01021480895
0.006580567118
0.00495372381
0.004124698858
0.003819952975
0.003973633028
0.004597949905
0.005473252631
0.006517704777
0.007656308214
0.008855401987
0.01008818342
0.01133193573
0.01256780985
0.01378218909
0.01496321603
0.01610353241
0.01720036961
0.01824864638
0.01923873076
0.02016474165
0.02103401531
0.02182168895
0.0225489882
0.02326554598
0.02405973028
0.02500285542
0.02614910526
0.02745234429
0.02886214285
0.03036518576
0.03190466788
0.03347229406
0.03564856259
0.03705332507
0.03936815102
0.04229714094
0.04571042467
0.04963799407
0.05371766747
0.05778995514
0.06173968263
0.0654664787
0.06898363857
0.07218941327
0.07516935715
0.07808890342
0.0796569325
0.1300418275
0.01298686658
0.01021475125
0.006580518225
0.004953677749
0.004124651721
0.003819892597
0.003973153895
0.004597210369
0.005472594946
0.006516799587
0.00765504411
0.008853792489
0.01008620841
0.01132915261
0.01256405402
0.01377576497
0.0149534103
0.01609037994
0.01718225576
0.01822028287
0.01918175413
0.02006238939
0.02084510577
0.02149957262
0.02203092568
0.02255857874
0.02318089451
0.02393992069
0.02503540453
0.02636103497
0.02788128726
0.02947694874
0.03105456863
0.03311027291
0.03585662325
0.03892812475
0.04125201688
0.04327223448
0.04635907133
0.05027725596
0.05431904167
0.05821255312
0.06191345481
0.06550589173
0.06889127298
0.0719643051
0.07480452394
0.07757433074
0.07849544401
0.1289920119
0.01298683159
0.01021470948
0.0065804781
0.004953636764
0.004124609488
0.003819838909
0.003972910066
0.004596943416
0.005472623193
0.006516755347
0.007654764147
0.008853103545
0.01008492324
0.01132692908
0.01256021845
0.01376879875
0.01494143071
0.01607141934
0.01715400441
0.01817203791
0.01910008231
0.01991395194
0.02056302395
0.02105183201
0.02160202446
0.0222277258
0.02294459024
0.02360263713
0.02491039564
0.02628772786
0.02808433272
0.02994469806
0.03164961333
0.03384483476
0.03615282047
0.04046753863
0.04560610876
0.04995437723
0.05364159877
0.05709013427
0.06005364093
0.06258684459
0.06477555604
0.06666714801
0.06839647811
0.06985180313
0.07126273813
0.07277516611
0.07362699079
0.1245948518
0.0129868064
0.01021467466
0.006580448119
0.004953608266
0.004124583231
0.003819804267
0.00397268301
0.004596743934
0.005472561796
0.006516834059
0.007654613339
0.008852659448
0.01008409115
0.01132542946
0.01255750749
0.01376364176
0.01493179134
0.01605277861
0.01712119281
0.01811722322
0.01900364838
0.01973405074
0.0202314701
0.02077712494
0.02139661436
0.02212698487
0.02304456386
0.02269880611
0.02382294602
0.02351942238
0.02494523539
0.02704689706
0.029237845
0.03150875692
0.03444173902
0.03792603588
0.04100227701
0.04381027094
0.04822964101
0.05257354862
0.05658185137
0.06035979633
0.06383243284
0.06687029203
0.07002017845
0.07284552327
0.07545245323
0.07801635447
0.07927195424
0.1299658796
0.01298679033
0.01021465593
0.006580430166
0.004953590322
0.004124565083
0.003819781909
0.003972584313
0.00459676902
0.005472697965
0.006517625997
0.007655439216
0.008853269956
0.01008434227
0.01132506076
0.01255609991
0.01376017667
0.01492507522
0.01603925987
0.01709348861
0.018072736
0.01892066171
0.01958023625
0.02004054389
0.02062490145
0.02137958307
0.02235398618
0.0234043081
0.02406799574
0.02488755833
0.02434835156
0.02610927183
0.029528172
0.03320265977
0.03520425828
0.03709471077
0.03842316603
0.04063335343
0.04376717332
0.04825497489
0.05288242977
0.05715038074
0.06092065978
0.06386994804
0.06638807348
0.06923858225
0.07180862862
0.07418962067
0.0765557954
0.07737883449
0.1280354067
0.01298678497
0.0102146503
0.006580425306
0.004953585639
0.004124561079
0.003819777045
0.003972544695
0.004596749231
0.005472636775
0.006517881762
0.007655748432
0.008853497176
0.01008443507
0.0113249326
0.01255570242
0.0137588337
0.01492305596
0.01603174145
0.01708239458
0.01804245785
0.01886574792
0.0194462461
0.01987345275
0.02047695804
0.02132204695
0.02212393262
0.02300398468
0.02424835486
0.02408957737
0.02677453678
0.03207326333
0.04008072927
0.04787836683
0.0490931312
0.04988790593
0.05109708441
0.05148738315
0.052796533
0.05467221707
0.05804566886
0.06154162226
0.06440537619
0.06650124263
0.06803907945
0.06974435831
0.07119170494
0.07260294951
0.07381115667
0.07437742414
0.1249273374
0.01298678981
0.01021466471
0.006580436466
0.004953594859
0.004124569336
0.003819786535
0.003972583472
0.004596699042
0.005472633489
0.006517323102
0.007655103737
0.008852950696
0.01008403435
0.01132476617
0.01255581713
0.0137599102
0.01492476011
0.01603898088
0.01709319138
0.0180723976
0.01892028317
0.01957976029
0.02004262228
0.0206266374
0.02138122075
0.02235580502
0.02340559486
0.02406648814
0.02555758439
0.02758834394
0.03639445047
0.05213394031
0.06815854117
0.06476381986
0.06269162882
0.06501761137
0.06085899
0.06003128971
0.06042976974
0.06133332619
0.0627630844
0.06450067
0.06573740658
0.06664748934
0.06792426671
0.06908720916
0.07021380423
0.07150013049
0.0718875233
0.1218789234
0.01298680532
0.01021468727
0.006580457558
0.004953615306
0.004124589457
0.003819811877
0.003972703279
0.004596710684
0.005472516582
0.006516692924
0.00765450685
0.008852594894
0.01008405906
0.0113254246
0.0125575231
0.01376367811
0.01493182621
0.01605291696
0.01712124663
0.01811737747
0.01900390024
0.01973408944
0.02023174246
0.02077683691
0.02139474872
0.0221239954
0.0230430385
0.02270264442
0.02436169143
0.02938649782
0.04490543571
0.0724895297
0.1307148967
0.1152885047
0.103679057
0.09820204048
0.08672323399
0.07790405744
0.07339350867
0.07121465446
0.06932423327
0.06822587703
0.06749507883
0.0669220421
0.06673363866
0.06663145676
0.06666233554
0.06702004273
0.06616717181
0.1151249572
0.01298683056
0.01021471886
0.006580484994
0.004953644073
0.004124618119
0.003819849836
0.003972927596
0.004596921044
0.005472536377
0.006516679341
0.007654731935
0.008853095063
0.01008492935
0.01132693933
0.01256023845
0.01376881664
0.01494154192
0.01607153144
0.01715418793
0.01817204642
0.01909996665
0.01991357645
0.02056268106
0.0210507445
0.02159788041
0.02222115663
0.02294083964
0.02388784713
0.02652346902
0.03424692208
0.05232166476
0.0864644607
0.1683334277
0.1803031877
0.1761434384
0.1793574639
0.175530539
0.1588713863
0.1515540378
0.1493099837
0.1470314602
0.1452081873
0.1440973014
0.1429630156
0.1419420102
0.1408413568
0.1397964571
0.1391500532
0.1323298464
0.1767762324
0.01298686467
0.01021476265
0.006580526484
0.004953686642
0.004124661111
0.003819906029
0.003973197641
0.00459725368
0.005472603662
0.006516879718
0.007655182651
0.008853959955
0.01008640552
0.01132936646
0.01256428461
0.01377598763
0.01495374639
0.01609065716
0.0171829303
0.01822087874
0.01918233473
0.02006289611
0.02084562272
0.02150102579
0.02203682677
0.02256726584
0.02318909283
0.02411175981
0.02643977341
0.03268013113
0.04789257736
0.07465456694
0.1320783553
0.1173381387
0.1053617721
0.09849272621
0.08797921272
0.07882404268
0.07351266978
0.07120589457
0.06993266737
0.06951143243
0.06942292654
0.06950043337
0.06969256664
0.06997329288
0.07045183601
0.07087288301
0.07167152863
0.1218043224
0.01298690595
0.01021481079
0.006580568749
0.004953726972
0.004124704949
0.003819962864
0.003973657751
0.004598021508
0.005473274655
0.006517761103
0.007656382742
0.008855499903
0.01008830796
0.01133201894
0.0125679173
0.01378226772
0.01496335837
0.01610360941
0.01720053358
0.01824900314
0.01923915037
0.0201652596
0.02103708005
0.02183289614
0.02257043492
0.02327724849
0.02408475247
0.02508630089
0.02689667528
0.03071851299
0.03961320411
0.05472957946
0.06976574809
0.06619704859
0.06308508629
0.06151213091
0.05912476403
0.05799175729
0.05799558188
0.05905804146
0.06052494116
0.06217927221
0.06389856348
0.06557999175
0.06720437632
0.06870655045
0.07014472341
0.07171609809
0.07292385647
0.1232091197
0.01298695385
0.01021482569
0.006580595466
0.004953759669
0.004124753175
0.003820028375
0.003974060258
0.00459874439
0.00547384153
0.006518364033
0.007657253762
0.008856977209
0.01009063906
0.01133550634
0.01257346652
0.01379105602
0.01497620911
0.01612199059
0.01722416397
0.01828115288
0.01929111368
0.0202524399
0.02117320184
0.02205670375
0.02289742944
0.02374154343
0.02464296704
0.02564623656
0.02695730577
0.02904911699
0.0331959301
0.04001476185
0.04642320277
0.0459318086
0.04584343698
0.04646686771
0.04721647765
0.04851228304
0.05065941421
0.05319682216
0.05596408304
0.05880775922
0.06162716551
0.06432394274
0.06690419449
0.06926361765
0.07147511153
0.07371542226
0.07517729184
0.1255527797
0.0129870056
0.01021488346
0.006580645179
0.00495380687
0.0041248082
0.003820099535
0.003974926284
0.004600252775
0.005475548584
0.006520442796
0.007659624155
0.008859467282
0.01009314698
0.01133816121
0.01257679015
0.01379541599
0.01498342499
0.01613290336
0.01723956483
0.01830016427
0.01931788371
0.02029412954
0.02123717215
0.02215192766
0.02303632783
0.02391992154
0.02485710712
0.02587782917
0.02702604877
0.02844730996
0.03049970334
0.0334802723
0.03647041003
0.0373991029
0.03853371609
0.04020091731
0.04229348317
0.04488379977
0.04790186524
0.05119919041
0.05463240966
0.05813439287
0.06156523331
0.06482373282
0.06789211232
0.07070627183
0.07333820137
0.07596711782
0.07785783372
0.1284940302
0.01298706294
0.01021492353
0.006580700046
0.004953874899
0.004124897853
0.003820216306
0.003975478238
0.004601093034
0.00547627315
0.006521417662
0.007661375782
0.008862376859
0.01009757844
0.01134455699
0.0125857144
0.01380764227
0.0150001308
0.01615561565
0.01726934085
0.01833762118
0.01936215749
0.02034730195
0.02130031328
0.02222980788
0.02313706661
0.02404643321
0.02500198775
0.02603805362
0.02716357224
0.02840310356
0.02980184962
0.03147404375
0.03323222718
0.03462442479
0.03615618658
0.03817803799
0.04068536809
0.04363362468
0.04694835913
0.05053158425
0.05418196884
0.05787208622
0.06154959164
0.06504269015
0.06833666762
0.0713851298
0.07423543149
0.07706005076
0.07912603335
0.1298243993
0.01298712096
0.01021499943
0.006580765533
0.004953941463
0.004124982289
0.0038203417
0.003977134905
0.004604113987
0.005495488509
0.006547423489
0.00769443369
0.008902110231
0.01014372467
0.01139697868
0.01264440177
0.01387268802
0.01507190779
0.01623494167
0.01735709755
0.01843545015
0.01946978314
0.02046433053
0.02142615677
0.02236140771
0.02327876678
0.0241990999
0.02515935488
0.02619733134
0.02732524157
0.02852863704
0.02979903239
0.03116293635
0.03261901289
0.03414319892
0.03582806039
0.03788784037
0.04045192796
0.04346663629
0.04684931815
0.05049778613
0.05420116097
0.05787916804
0.06158438634
0.06515981404
0.06849536814
0.07160253742
0.07451172191
0.07739647727
0.07960750056
0.1304089762
0.01298717901
0.01021509478
0.006580920298
0.004954196162
0.004125373786
0.003820885822
0.003978540198
0.004619471433
0.005529930908
0.006596816783
0.007760092364
0.008984868162
0.0102441189
0.01151531068
0.01278084586
0.01402735769
0.01524502937
0.01642690784
0.01756816061
0.01866635676
0.01972176124
0.02073810872
0.0217216193
0.02267590157
0.02361042476
0.02454892733
0.02552346079
0.02656329394
0.02769194225
0.0288857562
0.03012646667
0.03142038037
0.03279165471
0.03430308231
0.03603733268
0.03806611398
0.04060098161
0.04359509072
0.04696484683
0.05060443294
0.05430137236
0.05797529764
0.06165053371
0.0652249601
0.06856333845
0.07166882127
0.07457916512
0.07746616064
0.07981997306
0.130703825
0.01298723637
0.01021561912
0.006581525365
0.004955163634
0.004126847328
0.003822925237
0.004001897007
0.004666242925
0.005596092762
0.006682940901
0.007866043752
0.009110168177
0.0103882495
0.01167768076
0.01296087773
0.01422448952
0.01545882017
0.01665689571
0.01781417787
0.01892862908
0.02000056615
0.02103411608
0.02203526947
0.02300698103
0.02396020311
0.02491878566
0.02590710452
0.02695485155
0.02807413335
0.0292480142
0.03046383105
0.03172418284
0.03307069282
0.03457523681
0.03630212466
0.03830658966
0.04080984925
0.04377318225
0.04711624765
0.05073196681
0.05440586933
0.05805846873
0.06171482451
0.06526413478
0.06858594922
0.07167375339
0.07457090922
0.07744867733
0.07988876368
0.1308255049
0.01298730143
0.01021817183
0.00658434519
0.004959513708
0.004133280855
0.003848723497
0.004058428919
0.004749874186
0.005712175678
0.006832535472
0.008051037886
0.009330823693
0.01064458922
0.01196940217
0.0132872546
0.01458462146
0.01585160944
0.01708125928
0.01826907721
0.01941288543
0.02051337952
0.02157502748
0.02260392332
0.02360178581
0.02458112456
0.02556382803
0.02657260411
0.02763759859
0.02876430863
0.02993897215
0.03113983492
0.03237647748
0.03369706808
0.03516004016
0.03681158014
0.03875063925
0.04119210455
0.0440978863
0.04739042528
0.05096097112
0.05464363645
0.05833692685
0.06199887411
0.06551189084
0.06878719781
0.07180973329
0.07471521852
0.07753400527
0.08005840211
0.1310032494
0.0129874082
0.01023152554
0.006596767108
0.004975871486
0.004189572481
0.003937613832
0.004196908371
0.004936801199
0.005945826416
0.007110582172
0.008370193356
0.009689169562
0.01103802737
0.01239496632
0.01374073643
0.01506189597
0.01634926525
0.01759634927
0.01879909094
0.01995593897
0.02106779269
0.02214031356
0.02317859561
0.02418433002
0.02517306687
0.02615881957
0.02717515393
0.0282388892
0.02936794187
0.03055278733
0.03175291657
0.03298256862
0.0342841504
0.03571387558
0.03722733808
0.03916064651
0.04157576106
0.04445849263
0.04773433592
0.05129349602
0.05500999571
0.05876178728
0.06244362143
0.06598865325
0.06932394727
0.07234321706
0.07523272734
0.07789097846
0.0804202653
0.1312336277
0.01298881494
0.01028658383
0.006646051134
0.005059080736
0.004323169669
0.004104447803
0.004497269631
0.00535020019
0.006465224229
0.007732667197
0.009091610404
0.01050230113
0.01193426241
0.0133616621
0.01476803386
0.01613967562
0.01746711605
0.01874508954
0.01997193905
0.02114606877
0.02226895425
0.02334765755
0.02438778477
0.02539360542
0.02637942027
0.02735949877
0.02836189319
0.02941186755
0.03051939401
0.03166369596
0.03281885238
0.03399267424
0.03523127573
0.03656374537
0.03788978513
0.03972554119
0.04195367496
0.04469148097
0.04787220653
0.05135863782
0.055026772
0.05883496153
0.06262485521
0.0662713471
0.0696878864
0.07277268896
0.07564175945
0.07809999824
0.08059007402
0.131048201
0.01300695803
0.01050253741
0.007004057223
0.005418955218
0.004708801023
0.004694829643
0.00530886863
0.006300950137
0.007515540222
0.008863608811
0.01028803978
0.01174780059
0.01321193225
0.01465740123
0.01606753125
0.01743195794
0.01874363465
0.01999822797
0.02119270173
0.02232894821
0.02341201519
0.02445008303
0.02544555991
0.02640444843
0.02734199095
0.02828154635
0.02924855773
0.03026908241
0.03135813869
0.03248616522
0.03362725422
0.034780601
0.03602772452
0.03739365192
0.0388955073
0.04071710324
0.04282787645
0.04549885614
0.04861474373
0.05206641438
0.05581268937
0.0597983737
0.06377692899
0.06760105939
0.07119218195
0.07443456507
0.0774576171
0.07985940316
0.0818290807
0.1316138175
0.0130953157
0.009722216434
0.00720256571
0.006111861944
0.005903550062
0.006315797431
0.0071842954
0.008388844189
0.009834118951
0.01144182649
0.01314682182
0.01489617751
0.01665011919
0.01838036906
0.02006618667
0.02169085396
0.02324185971
0.0247135997
0.02610795339
0.02743155429
0.02868850893
0.02988193155
0.03101162946
0.03208615409
0.03312612487
0.03416596753
0.03522902302
0.03635763115
0.03754367413
0.03873851877
0.03988410367
0.0409805598
0.0421325976
0.04335468134
0.04460255776
0.04616115321
0.04809046549
0.05059063724
0.0535889031
0.05696792167
0.06082552159
0.06494155248
0.06904744216
0.07299347012
0.07669095817
0.08004269678
0.08308864766
0.08531914029
0.08810516773
0.138145114
0.01361569868
0.008933458141
0.007385529608
0.007157552778
0.007792081319
0.009076115387
0.01084342694
0.01295059925
0.01527265878
0.01771125113
0.02019093911
0.02265385965
0.02505771603
0.02737551341
0.02959392158
0.03170491385
0.03370178318
0.03558136464
0.03735203085
0.03903053341
0.04063380036
0.04217043117
0.04363984423
0.04504613835
0.04641571395
0.04780003606
0.04925594972
0.05083676455
0.05258652899
0.05449191617
0.05661449458
0.05920644516
0.06247210826
0.06590642315
0.06753170597
0.06930636512
0.07158345653
0.0743023586
0.07741507412
0.08080791089
0.08459778842
0.08849988897
0.09231260432
0.09590341101
0.09920062637
0.1021251791
0.1047205229
0.1067209496
0.1097250609
0.1641511638
0.01307037525
0.007639181618
0.005131275319
0.004187120569
0.004034361757
0.004401949038
0.005147367314
0.006181127114
0.007433284117
0.008845375552
0.01036784853
0.01195848368
0.01358146067
0.01520713718
0.01681180507
0.01837732746
0.01989042364
0.02134045517
0.02272101403
0.0240290702
0.02526873074
0.02644410272
0.02755689984
0.02860821992
0.02961268057
0.03059153051
0.03158565093
0.03261177096
0.03377437199
0.03524589404
0.03755999461
0.04142936311
0.04731356248
0.05390369701
0.05455502877
0.05424656599
0.0546393041
0.05549494906
0.05697256335
0.05889190405
0.0611537904
0.06362501305
0.06616692838
0.06865877627
0.07100639063
0.07314110916
0.07502436226
0.07688803531
0.0788237165
0.128527814
0.01226608049
0.007195075342
0.004661793095
0.003202015929
0.002346050695
0.001807972654
0.00145077188
0.001204013768
0.001028820815
0.0009023582188
0.0008104859252
0.0007440109748
0.000696679492
0.0006640745589
0.0006429715966
0.0006309371191
0.0006260423716
0.000626878208
0.0006325671324
0.0006427344614
0.0006580646897
0.0006800214175
0.0007121565033
0.000761107504
0.0008380478232
0.0009606461875
0.001152595939
0.001447652471
0.001884190633
0.002512713687
0.003396473599
0.004617607228
0.006255227706
0.00831550464
0.01059893875
0.01331761967
0.01647312955
0.02001647979
0.02389739932
0.0280101205
0.03224241121
0.0364740853
0.04058921983
0.0444855632
0.04808166528
0.05131812346
0.05415130676
0.05787122353
0.0593735229
0.06581655423
0.01212328325
0.007184776678
0.004667307879
0.003212316901
0.002354590179
0.001811910343
0.001448629943
0.00119448696
0.00101049016
0.0008737407229
0.0007701340323
0.0006906053321
0.0006291155559
0.0005815389687
0.0005449606154
0.0005173028468
0.0004970115503
0.0004831299598
0.0004750196459
0.0004727098869
0.00047685992
0.0004893092641
0.0005138343381
0.0005571137135
0.0006301939718
0.0007502479633
0.0009418223278
0.00123690047
0.001676722438
0.00230819463
0.003183773417
0.004358568684
0.005886725735
0.007812027853
0.01016442798
0.01293975952
0.01614075766
0.01973271404
0.02367002551
0.0278390422
0.03211883139
0.03639158127
0.04054450834
0.04447814732
0.04811168569
0.05138732459
0.0542635989
0.05813060639
0.05966014078
0.06362168462
0.01213152758
0.00723554295
0.004716255613
0.003221078611
0.002360754817
0.00181452652
0.001449141368
0.001193725168
0.00100900493
0.0008719199788
0.0007682543185
0.0006888953418
0.0006277735221
0.0005806907688
0.0005447005118
0.0005176983769
0.0004981709696
0.0004850457309
0.0004777095556
0.0004760659277
0.0004808092549
0.0004937972309
0.0005188469289
0.0005627291745
0.0006364858229
0.0007575523007
0.0009500036829
0.001246596337
0.00168806506
0.00232174327
0.003199575437
0.004375567095
0.005904867451
0.007830729514
0.01018096097
0.01296953704
0.01619216459
0.01980768915
0.02373786261
0.02789861712
0.03217378862
0.03644448718
0.04059767921
0.04453369654
0.04817169053
0.05144816523
0.05453850892
0.0597046668
0.06100493786
0.06468489171
0.0121689312
0.00732127114
0.004718669217
0.003204728932
0.002351239951
0.001807616075
0.001443184968
0.001188237976
0.001003507384
0.0008659806467
0.0007614782685
0.0006809290937
0.0006182951851
0.0005694364567
0.0005314312728
0.0005021945103
0.0004802455075
0.0004645514075
0.0004545211338
0.0004500910379
0.0004519677796
0.0004621176408
0.0004843776219
0.000525692175
0.0005971990655
0.0007165898393
0.0009084432783
0.001205427183
0.001648661931
0.002285318467
0.00316884976
0.0043536693
0.005892524821
0.007829408106
0.0101931613
0.01300149106
0.01624683516
0.01988400428
0.02382919146
0.0279890855
0.03225199191
0.03651737123
0.04066675989
0.04459936308
0.04823512355
0.05179450528
0.05500308158
0.06008053064
0.06130667305
0.06490978582
0.01216895765
0.007320530341
0.00471886571
0.003203426653
0.002350467712
0.001804192792
0.001440266861
0.001185656856
0.001001118806
0.0008637026679
0.0007592841108
0.0006788041678
0.0006162441871
0.0005674630115
0.0005295382262
0.0005003815115
0.0004785010944
0.0004628545028
0.0004528175511
0.0004482974664
0.0004499857437
0.0004598469076
0.000481808416
0.0005228801433
0.0005943105414
0.0007139542579
0.0009063946647
0.001204810479
0.001605628056
0.002248615587
0.003237102484
0.004476197377
0.006008012686
0.007934619813
0.01029364751
0.01310074373
0.01634605516
0.01998249371
0.02392609232
0.02808249295
0.03234713787
0.03659871551
0.04073597869
0.04467776012
0.04839552039
0.05217711095
0.05527578267
0.06022170765
0.06142082531
0.064960716
0.01216890953
0.007320288796
0.004718894229
0.003203194315
0.002350168633
0.001801184967
0.001436369536
0.001182306297