/*--------------------------------*- C++ -*----------------------------------*\
| =========                 |                                                 |
| \\      /  F ield         | OpenFOAM: The Open Source CFD Toolbox           |
|  \\    /   O peration     | Version:  2.2.1                                 |
|   \\  /    A nd           | Web:      www.OpenFOAM.org                      |
|    \\/     M anipulation  |                                                 |
\*---------------------------------------------------------------------------*/
FoamFile
{
    version     2.0;
    format      ascii;
    class       volScalarField;
    location    "5";
    object      nut;
}
// * * * * * * * * * * * * * * * * * * * * * * * * * * * * * * * * * * * * * //

dimensions      [0 2 -1 0 0 0 0];

internalField   nonuniform List<scalar> 
86889
(
0.0001421796505
0.0001448198663
0.0001846343015
0.0002644870601
0.0004024918663
0.0006076420365
0.0008683418486
0.001162213204
0.001469590753
0.001778777134
0.002084219027
0.002383427275
0.002675273235
0.002959356685
0.003235756006
0.00350455778
0.003765821978
0.004019727811
0.004266879977
0.004508183588
0.004744520956
0.004976620519
0.005205190685
0.005431628812
0.005658565011
0.00588979626
0.006129852177
0.006382808398
0.006652219769
0.006941546368
0.007253701864
0.007592320076
0.007960154122
0.008366527779
0.008854763613
0.009415132387
0.01004558984
0.01074619607
0.01150419464
0.01229818054
0.01308734557
0.01385634957
0.01459131216
0.01527869012
0.01590525306
0.0164682674
0.01694876014
0.01742330121
0.01756057124
0.01544584592
0.000139473801
0.0001692664908
0.000177232186
0.000208388735
0.0002740444117
0.0003853854445
0.0005444625251
0.0007412898957
0.0009606441029
0.00118990884
0.001421341744
0.001650920806
0.001876809047
0.002098210216
0.002314651299
0.002525666096
0.002730906489
0.002930253976
0.003124001957
0.00331249654
0.00349604604
0.003674772009
0.003849060097
0.004020014848
0.00418973024
0.004361120118
0.004537395614
0.004721934873
0.004916872449
0.005124309196
0.005348241179
0.005597896656
0.00588678234
0.006233826387
0.006662024936
0.007193610529
0.007844741539
0.00863457436
0.009531426912
0.01050489304
0.01150305363
0.01249210889
0.01345409533
0.01436709141
0.01521062226
0.01597525149
0.01663958453
0.01728791012
0.01756742162
0.01507041083
0.0001388967467
0.0001924378411
0.0001708948767
0.000173760505
0.0001975345411
0.0002582125421
0.0003735830253
0.0005317372713
0.0007145711685
0.0009083035792
0.001105053648
0.001300884676
0.001493922188
0.0016832614
0.001868443188
0.002049221519
0.002225468727
0.00239712314
0.002564190191
0.002726808662
0.002885374988
0.003040390668
0.003192406368
0.00334237228
0.00349206305
0.00364399429
0.003801332862
0.003967595387
0.004146402785
0.004341716327
0.004559616785
0.004810552698
0.005108414938
0.005471971398
0.005921857086
0.006478140361
0.007153899899
0.007974026553
0.008903897094
0.009913830968
0.01096540347
0.0120102444
0.01302833902
0.01399608034
0.01489008748
0.01570192201
0.01638989607
0.0170557545
0.01765640141
0.01456450559
0.0001387576831
0.0001858749646
0.0001597087609
0.0001592210649
0.0001774334619
0.0002182356391
0.0003092969496
0.0004525816954
0.0006293585263
0.0008228706145
0.001023034604
0.001224651254
0.001425081672
0.001622871519
0.001817282323
0.002007881505
0.002194367559
0.0023765843
0.002554512126
0.002728188066
0.002897833771
0.003063978223
0.00322727553
0.003388662644
0.003549774047
0.00371309292
0.003881952688
0.004060170595
0.004251723176
0.004460826862
0.004694064006
0.004962385825
0.005281474081
0.005671508234
0.006162971181
0.006760493537
0.007475045358
0.008322765004
0.009284155008
0.01033039802
0.01143172682
0.01254053974
0.01362640251
0.01466046471
0.01561667517
0.01648607074
0.01720920794
0.01788956393
0.01843373359
0.01457859384
0.0001387562263
0.0001842279007
0.0001579882756
0.0001558517038
0.0001706222121
0.0002074637399
0.0002851646749
0.0004169032267
0.0005852250191
0.0007731591335
0.0009697537015
0.001169261813
0.001368551355
0.001566009659
0.001760720618
0.001952144651
0.002139970109
0.002323998901
0.002504127289
0.002680381732
0.0028529713
0.003022385568
0.003189251986
0.003354436682
0.00351980362
0.003688085522
0.003862883257
0.004048388986
0.004249124385
0.004469892943
0.004717733635
0.005004297998
0.005346314932
0.005764308766
0.006286147477
0.006921870824
0.007676546412
0.00855401853
0.009540486773
0.01061194132
0.01173888561
0.01288863782
0.0140278437
0.01511552852
0.01611825404
0.01702549747
0.01777881093
0.01845106279
0.01898178964
0.01465290377
0.0001387546973
0.0001838300333
0.0001575197093
0.0001551055432
0.0001677797127
0.0002017302308
0.0002740662242
0.0004002830386
0.0005639801984
0.0007485128882
0.0009426571514
0.001140301491
0.001338194544
0.001534558333
0.001728414874
0.001919204133
0.00210658368
0.002290327976
0.002470304513
0.002646509239
0.00281912452
0.002988613268
0.003155655099
0.003321137734
0.003486931596
0.003655862055
0.003831534147
0.004018572724
0.004221256358
0.004444332449
0.004695605061
0.004987944549
0.005338223487
0.005766845285
0.006297517723
0.006949173911
0.007721943342
0.008616156068
0.009619483777
0.01070980712
0.01186112171
0.01304303519
0.01420851728
0.01532908388
0.01637588583
0.01731637959
0.01813015729
0.01880108528
0.01934810634
0.0146826341
0.0001387541017
0.0001837548763
0.0001574117796
0.0001549073828
0.0001674298868
0.0002001033402
0.0002695398417
0.0003924493324
0.0005523105715
0.0007330616043
0.0009235816855
0.001117747473
0.001312243036
0.001505250639
0.001695791127
0.001883297849
0.002067431434
0.00224796862
0.002424786084
0.002597895771
0.002767469349
0.002933944242
0.003098017086
0.00326063411
0.003423615356
0.003589908476
0.003763318254
0.003948407842
0.004149883064
0.004373431496
0.004626596726
0.004923074454
0.005279857983
0.005716796967
0.006257128516
0.006919221
0.007703429453
0.008609517797
0.009625599858
0.01073013023
0.01189984612
0.01310743586
0.01429759015
0.01543400823
0.01649162414
0.01744319621
0.01828082603
0.01895410619
0.01954361857
0.01470096436
0.0001387536909
0.0001837402209
0.0001573880511
0.0001548616927
0.0001673467529
0.0001999672836
0.0002676884213
0.0003879905669
0.0005452551855
0.0007233601064
0.0009112442531
0.001102835093
0.001294822493
0.001485386091
0.001673536328
0.001858703287
0.002040539392
0.002218817356
0.002393396539
0.002564260752
0.00273158105
0.002895791994
0.003057602036
0.003217956886
0.00337862155
0.003542606701
0.003713913416
0.003897215119
0.0040982626
0.004322949451
0.00457813654
0.004877191307
0.005237119261
0.005677786949
0.006222488894
0.006889384655
0.007679892399
0.008592460592
0.009615637019
0.01072847792
0.01190787612
0.01312620623
0.01433218713
0.01547894617
0.01654467536
0.01750352193
0.01834669421
0.01902352097
0.01963733981
0.01471597115
0.0001387532748
0.0001837390607
0.000157384562
0.0001548538761
0.0001673313361
0.000199941012
0.0002675622929
0.0003864982713
0.0005414874391
0.0007175926455
0.0009033391294
0.001092730114
0.001282482335
0.001470788712
0.001656668504
0.001839556135
0.002019098602
0.002195063364
0.002367313631
0.002535807432
0.002700691085
0.002862406861
0.003021718295
0.003179886901
0.003338680932
0.003500869479
0.003670494458
0.003852490095
0.00405323353
0.004278072076
0.004534068793
0.004834710307
0.005196984084
0.00564094371
0.006189864972
0.006861667445
0.007657439544
0.008576132154
0.009606593536
0.01072795874
0.01191715423
0.0131461372
0.01435862805
0.01551776449
0.01659027906
0.01755541099
0.01840332647
0.01908375657
0.01979091841
0.01472435812
0.0001387528726
0.0001837374966
0.0001573828274
0.0001548515827
0.0001673276221
0.0001999341246
0.0002674149276
0.0003861848276
0.0005393335711
0.0007144775616
0.0008992323387
0.001087667012
0.001276492115
0.001463892927
0.001648882319
0.001830888919
0.002009544646
0.002184591907
0.002355885146
0.002523344466
0.002687205802
0.002848136423
0.003006934405
0.003164885133
0.003323680863
0.003485899631
0.003655677907
0.003837770727
0.004037747711
0.004262051958
0.004518096346
0.0048196104
0.00518363791
0.005630757514
0.006184615429
0.006859298738
0.007657768126
0.008579122586
0.009612639164
0.01073878503
0.01193348362
0.01316150221
0.0143752049
0.01554550308
0.01662457908
0.01759339768
0.01844363991
0.01912533764
0.01983033275
0.01474484293
0.0001387524649
0.0001837378362
0.0001573828055
0.0001548513935
0.0001673269929
0.0001999329956
0.0002673828947
0.0003861308777
0.0005393004178
0.000714436034
0.0008991417945
0.001087501398
0.001276231198
0.001463509816
0.001648343407
0.001830148025
0.002008531866
0.002183215468
0.002354082235
0.002521130846
0.002684833465
0.002845845284
0.003004861031
0.00316258879
0.003320852654
0.003482712511
0.003652430614
0.00383426446
0.004033318995
0.004256442399
0.004512105807
0.004814216778
0.005180015929
0.005630610455
0.006191633206
0.006868051946
0.007664544772
0.00858884409
0.009628082365
0.01075958714
0.01195616273
0.01318024795
0.01439637981
0.0155694339
0.01665258426
0.01762209428
0.01847329528
0.01915623514
0.01999266421
0.01475196952
0.0001387521068
0.0001837372656
0.0001573821732
0.0001548507325
0.0001673258591
0.000199930906
0.0002673045341
0.0003859738561
0.0005391110154
0.0007142049493
0.0008988861008
0.001087238145
0.001275978004
0.001463269213
0.001648088364
0.001829870066
0.002008127719
0.002182640797
0.002353304176
0.002520468057
0.002684431761
0.002845525984
0.003004335475
0.003161351516
0.003318123014
0.0034790401
0.003647972631
0.003828978493
0.004027499692
0.004250245329
0.004506950932
0.004811490609
0.005180043493
0.005638229435
0.006209184588
0.006881139534
0.007656207986
0.008576183128
0.00963432701
0.01078173056
0.01198773651
0.0132186422
0.01443834873
0.01561240722
0.0166993295
0.01766988618
0.01852025572
0.0192009488
0.01987026897
0.01480585376
0.0001387517653
0.000183737882
0.0001573825205
0.0001548510912
0.0001673260492
0.0001999310653
0.0002672803442
0.0003859218462
0.0005390819525
0.0007141841817
0.0008988558334
0.001087179182
0.001275874129
0.001463108208
0.001647815866
0.00182941759
0.002007444009
0.002181654238
0.002352226124
0.002519486088
0.002683128869
0.002843286305
0.003000648216
0.003155473582
0.003309068506
0.003465281293
0.003629587013
0.00380652952
0.004003303472
0.004227512056
0.004489167619
0.004800239759
0.005176984103
0.005649676055
0.006228379705
0.006796252592
0.007572544858
0.008515459946
0.009599910368
0.01079064324
0.01204305943
0.01332110876
0.01458748886
0.01580604975
0.01692854295
0.01792645995
0.01879738827
0.01948942314
0.02036854315
0.01484935382
0.0001387514789
0.0001837371483
0.0001573818229
0.0001548503643
0.0001673252664
0.0001999297007
0.0002672411782
0.0003858534207
0.0005390206028
0.00071410272
0.0008987492524
0.001087054487
0.001275735938
0.001462934139
0.001647602605
0.001829069531
0.002006920027
0.002180977516
0.002351749249
0.002519176746
0.002682246787
0.002841070542
0.002995831967
0.003146310612
0.003294120599
0.003444184448
0.003602472775
0.003769677525
0.003961657982
0.004185294674
0.004450818355
0.004770154367
0.005161665589
0.005662190751
0.006272825542
0.006876942152
0.007562546115
0.008306679689
0.009296802167
0.01046797405
0.01169452386
0.01292532286
0.01413539017
0.01530491234
0.01639762226
0.0173677578
0.01821270765
0.0188844786
0.01921722984
0.01451327136
0.0001387512359
0.0001837368193
0.0001573814637
0.0001548499698
0.000167325003
0.0001999291645
0.0002672243464
0.0003858350527
0.0005390364794
0.0007141208901
0.0008987581909
0.001087043958
0.00127569623
0.001462846393
0.001647428081
0.001828719095
0.002006283331
0.002179959365
0.00235051629
0.002517377711
0.00267965239
0.002836665418
0.002987052568
0.003131847308
0.003278125848
0.003430083088
0.003592439891
0.003745307826
0.003941755453
0.004131115503
0.004405309172
0.004733472171
0.005127542538
0.005652205628
0.006229059636
0.006965415129
0.007514203854
0.007228412843
0.007946764706
0.00884450181
0.009765809289
0.01061195768
0.01143306874
0.01223789987
0.01301938012
0.01372157086
0.01434411433
0.0148750379
0.01468649385
0.01306830789
0.0001387510611
0.0001837363875
0.0001573810573
0.0001548495299
0.0001673246457
0.0001999284673
0.000267206543
0.0003858194647
0.0005390370636
0.0007141408879
0.0008987665538
0.00108703853
0.001275673567
0.001462791421
0.001647310047
0.001828466374
0.002005779147
0.00217895833
0.002348805896
0.002514631686
0.002675584691
0.002830232222
0.002975687447
0.003120305927
0.003268954886
0.003427182357
0.003604732865
0.003587903897
0.003804166943
0.003814002805
0.004062820963
0.004402942562
0.004811992178
0.005339215985
0.005977132413
0.006621182954
0.007362841321
0.008153664649
0.009175333297
0.01029703905
0.0115132896
0.01272745374
0.01389894764
0.01499630888
0.01605549029
0.0169922238
0.01780693796
0.01845561196
0.018546219
0.01445041574
0.0001387509495
0.0001837362469
0.0001573809011
0.0001548493649
0.0001673245359
0.0001999282802
0.0002671998917
0.0003858259392
0.0005390580794
0.0007142319252
0.0008988723998
0.001087139539
0.001275760085
0.00146284665
0.00164730815
0.001828345885
0.002005468446
0.002178259065
0.002347328628
0.002512196307
0.00267152674
0.002823494408
0.002960161367
0.003105448902
0.003262723952
0.003443857773
0.003625419326
0.003750379924
0.003846150566
0.003749651613
0.003981259537
0.004348657558
0.004785651027
0.005263696938
0.005835546124
0.006345539004
0.007066742759
0.007974518599
0.008910622338
0.009906689146
0.0109698999
0.01208865495
0.01318541352
0.01422130173
0.0152283738
0.0161242485
0.01691004683
0.01754541893
0.01775285075
0.01410414726
0.0001387509124
0.0001837361968
0.0001573808496
0.0001548493032
0.0001673245103
0.00019992824
0.000267196757
0.000385824693
0.0005390529727
0.0007142587726
0.0008989078511
0.001087172695
0.001275787331
0.001462862335
0.001647309488
0.001828293094
0.002005371811
0.002177867179
0.002346694898
0.00251063465
0.002668684293
0.002817582469
0.002946770818
0.003091929404
0.003254987092
0.003402368904
0.003563313767
0.00377817009
0.003794028238
0.003536922223
0.004021967868
0.00472706006
0.00545587472
0.005891190919
0.006342722092
0.006857867143
0.007376198979
0.008047228329
0.00879325721
0.009558843341
0.01033506821
0.01112289003
0.01182478456
0.01245423443
0.01309362796
0.01365336718
0.0141371727
0.01458488705
0.01441281915
0.0130588619
0.0001387509458
0.0001837365047
0.0001573811195
0.0001548495524
0.0001673247357
0.0001999285399
0.0002671996604
0.0003858185211
0.0005390503768
0.0007141999102
0.0008988348175
0.001087100679
0.001275719814
0.001462805296
0.001647265728
0.001828302661
0.002005420795
0.002178210798
0.002347277394
0.002512141198
0.002671468276
0.002823430785
0.002960467312
0.003105744445
0.003262972172
0.00344408559
0.003625550358
0.003749806924
0.003854709697
0.003837805126
0.004419655896
0.005494342117
0.006552627547
0.006804719522
0.007134965192
0.007550287196
0.007683884865
0.008172438178
0.008831597057
0.009562882159
0.01032936308
0.01111296523
0.01184814821
0.01255134287
0.0132468181
0.01386966193
0.01441968776
0.01487611353
0.01498134389
0.01299294991
0.0001387510537
0.0001837367843
0.0001573814103
0.0001548498573
0.0001673249834
0.0001999289531
0.0002672082465
0.0003858158111
0.0005390315743
0.0007141251194
0.0008987522857
0.001087026304
0.001275662583
0.00146278117
0.001647299871
0.001828455928
0.002005766866
0.002178948548
0.002348789463
0.002514614977
0.00267556842
0.00283019993
0.002975657442
0.003120254507
0.003268725355
0.003426754208
0.003604267372
0.003587491861
0.00380253549
0.003938043925
0.004915792561
0.006558633933
0.008538159765
0.008494438038
0.008527840358
0.008519059032
0.008320195805
0.00826273219
0.00858824861
0.009124043961
0.009643797529
0.0102141487
0.01077706477
0.0113003103
0.01182452768
0.01228847251
0.01270282435
0.01305790793
0.01297691027
0.01207490902
0.000138751229
0.0001837371089
0.0001573816945
0.0001548502319
0.0001673253223
0.0001999296788
0.0002672254876
0.0003858320254
0.0005390260293
0.0007141100662
0.0008987498597
0.001087036204
0.001275688026
0.001462836589
0.001647416566
0.001828704705
0.002006270753
0.002179944196
0.002350500221
0.002517347906
0.002679609504
0.002836605636
0.00298698229
0.00313171422
0.003277719853
0.003429258616
0.003591652162
0.003744675763
0.003956484644
0.00438215682
0.00551202345
0.007334791553
0.008461872873
0.09595359217
0.09089038618
0.06820420448
0.06551889236
0.05266312996
0.04822750417
0.04728743863
0.04628041609
0.04537501696
0.04482127042
0.04429303728
0.04382531115
0.04330610217
0.04270495136
0.04197786878
0.03773168772
0.02409348381
0.0001387514657
0.0001837375251
0.000157382134
0.0001548507423
0.0001673257372
0.0001999305128
0.0002672448429
0.0003858572478
0.0005390206486
0.000714108888
0.0008987599098
0.001087066701
0.00127574925
0.001462947011
0.001647614173
0.001829077454
0.002006929711
0.002180980818
0.002351764977
0.002519184358
0.002682246106
0.002841060598
0.002995802962
0.003146286939
0.003294269903
0.003444555316
0.003602729878
0.003769788363
0.003973646799
0.004340416968
0.005276121295
0.006830729225
0.008685101667
0.008727877011
0.008783498403
0.009082746641
0.008987357322
0.008911988953
0.009139297345
0.009621119204
0.01017493903
0.01076617799
0.01135056069
0.01190721204
0.01241898641
0.01288522454
0.01329683698
0.01368490496
0.01396262183
0.0127707366
0.000138751752
0.0001837379638
0.0001573825919
0.0001548512109
0.0001673263177
0.0001999315856
0.0002672821714
0.0003859283507
0.0005390832381
0.0007141878018
0.0008988597889
0.001087183417
0.001275878173
0.001463106633
0.001647811968
0.001829407096
0.002007430187
0.002181630044
0.002352197269
0.002519455797
0.002683091593
0.002843243593
0.003000678352
0.003155880779
0.003310756592
0.003466375824
0.003630815866
0.003808357987
0.004014726725
0.0043022988
0.004866789184
0.005850757566
0.00680412185
0.007024529251
0.007268999258
0.007661292635
0.007988967352
0.008474910708
0.009112367603
0.009872469475
0.01068393056
0.01151470202
0.01233854628
0.01313083391
0.01386321808
0.0145161734
0.01509044961
0.01556276837
0.016159724
0.0133356451
0.0001387520847
0.0001837371232
0.0001573820867
0.0001548507328
0.000167326121
0.0001999315742
0.0002673110503
0.0003859892665
0.0005391256746
0.0007142243786
0.0008989061292
0.001087261915
0.001276001378
0.00146329022
0.001648109891
0.001829886205
0.002008144201
0.002182651377
0.002353312149
0.002520475075
0.002684438627
0.002845542768
0.003004587521
0.003162375603
0.003320932154
0.003482828482
0.003651792435
0.0038327269
0.004034217238
0.00427336051
0.004603186073
0.005100449835
0.005651084693
0.006002836695
0.006417326234
0.006943817007
0.007538919266
0.008258586417
0.00911662411
0.01006047838
0.01106062631
0.01208773246
0.01311093127
0.01409946839
0.01500748163
0.01581671028
0.01652761379
0.01710316027
0.01792482448
0.0139137118
0.0001387524436
0.0001837376286
0.0001573826465
0.0001548513174
0.0001673271047
0.0001999334034
0.0002673855547
0.0003861371806
0.0005393029994
0.0007144409882
0.0008991470742
0.001087504723
0.001276229295
0.001463502558
0.00164832892
0.001830126098
0.002008500014
0.002183174496
0.002354026944
0.002521066664
0.002684751652
0.002845772414
0.003004903037
0.003163034297
0.003321938395
0.003484118822
0.003653745489
0.003835417995
0.004034808096
0.00426126625
0.004529119342
0.004858175754
0.005243558705
0.005664034028
0.006173691665
0.006794917113
0.007527883191
0.008384007447
0.009350125252
0.01040305451
0.01151691032
0.01265668324
0.01378877805
0.01487990361
0.01588752466
0.01678926565
0.01758177325
0.0182214563
0.01898366398
0.01439247023
0.000138752844
0.0001837372019
0.0001573825898
0.0001548514369
0.0001673276936
0.0001999345603
0.0002674237513
0.0003862032382
0.0005393520371
0.0007145015907
0.0008992613136
0.001087698471
0.001276525237
0.001463928015
0.001648918304
0.001830926351
0.002009581791
0.002184628399
0.002355920031
0.002523374281
0.002687229966
0.002848146604
0.003006924564
0.003164861971
0.003323595236
0.003485719261
0.003655370122
0.003837322264
0.004037145496
0.004261804636
0.004519390408
0.004822849686
0.005184496092
0.005625181391
0.00617033402
0.00682910636
0.007611257104
0.008515986225
0.009532255238
0.01063978248
0.01181500937
0.0130230567
0.01421666781
0.01536678114
0.01642600488
0.01737643501
0.01821071371
0.01888005194
0.01959350852
0.01464135036
0.0001387532455
0.0001837382462
0.000157383911
0.0001548534114
0.0001673311586
0.0001999414425
0.000267572671
0.0003865099936
0.0005414956477
0.0007176037082
0.0009033489588
0.001092732341
0.001282474198
0.001470769379
0.001656636522
0.001839511194
0.002019039422
0.002194988981
0.002367223062
0.002535699128
0.002700561297
0.002862253754
0.003021537234
0.00317967366
0.003338408518
0.003500496035
0.003670011392
0.003851884249
0.004052427441
0.004277028451
0.004532862436
0.004833268957
0.005194226653
0.005636165612
0.006184343216
0.00685222754
0.007643031464
0.008556154723
0.009580635532
0.01069587307
0.01187885472
0.01310155768
0.01430790221
0.01546095435
0.01652866886
0.01748982043
0.01833473961
0.0190135878
0.0196730551
0.01470538203
0.0001387536557
0.0001837391452
0.0001573871737
0.0001548609459
0.0001673461614
0.000199966741
0.0002676716554
0.0003879660984
0.000545233497
0.0007233450799
0.0009112330392
0.001102827821
0.001294820907
0.001485390439
0.001673546444
0.001858719984
0.002040562098
0.002218846039
0.002393427215
0.002564287432
0.002731596969
0.002895785247
0.003057550628
0.003217845477
0.003378413842
0.003542265856
0.003713430919
0.003896544469
0.004097357172
0.00432173587
0.004576525454
0.00487510454
0.005234319159
0.005674159396
0.006218020362
0.006883603663
0.007672543199
0.008583910907
0.009606100316
0.0107180191
0.01189648498
0.01311375318
0.01431866168
0.01546478952
0.01653005619
0.01748859988
0.01833165116
0.01900873208
0.0196084455
0.01471313718
0.0001387540652
0.0001837539201
0.0001574109826
0.0001549066936
0.0001674293798
0.0002001027111
0.0002695538738
0.0003924908742
0.0005523735831
0.0007331794199
0.000923708983
0.001117863044
0.001312344574
0.00150533824
0.001695861828
0.00188335091
0.002067464093
0.002247975748
0.00242476
0.002597822921
0.002767342283
0.002933764189
0.00309778019
0.003260329321
0.003423207812
0.003589394465
0.003762690039
0.003947615984
0.004148917155
0.004372182279
0.004624993064
0.004921021932
0.00527718593
0.005713229423
0.006252169902
0.006912830211
0.007695623954
0.008600047951
0.009614371857
0.01071713462
0.01188511147
0.01309104193
0.01428426166
0.01541980271
0.0164775609
0.01742970536
0.01826818072
0.01894280601
0.01951186914
0.01469993484
0.0001387546553
0.0001838280834
0.0001575179783
0.0001551036768
0.0001677768116
0.0002017265032
0.0002740434847
0.0004002390634
0.0005639067959
0.0007483754395
0.0009425094492
0.001140143663
0.001338040441
0.001534413881
0.001728282835
0.001919085013
0.002106471893
0.002290216147
0.00247018818
0.002646383595
0.002818995788
0.002988480146
0.003155520594
0.003321003103
0.003486746565
0.003655619104
0.003831291764
0.004018205576
0.004220745661
0.004443609913
0.004694568825
0.004986478864
0.005336132011
0.005763830501
0.006293187166
0.006943438144
0.00771470543
0.008607431073
0.009609386203
0.01069847857
0.01184867711
0.01302960115
0.01419872591
0.01531886736
0.01636617591
0.01730744068
0.01811430894
0.01878688989
0.01932372762
0.01468182402
0.0001387561941
0.0001842291806
0.0001579894931
0.0001558526622
0.0001706233918
0.0002074670723
0.0002852409041
0.0004170503414
0.0005854199212
0.0007733864071
0.0009700028967
0.001169549693
0.001368863073
0.00156637798
0.001761113167
0.001952544682
0.002140372874
0.002324399008
0.002504521214
0.002680770916
0.002853353627
0.003022759138
0.003189622732
0.003354816743
0.003520216584
0.003688404189
0.003863189776
0.004048603849
0.004249128878
0.00446969848
0.004717271751
0.005003436085
0.005344842402
0.005761915617
0.006282439484
0.006916832739
0.007669984461
0.008545789049
0.009530502824
0.01060022099
0.01172552843
0.01287391976
0.01401046208
0.01509356646
0.01609138451
0.01699449984
0.0177457737
0.01842031504
0.01894373557
0.01465121614
0.0001387698881
0.0001858853418
0.0001597325967
0.0001592433441
0.000177452333
0.0002182499113
0.0003092501121
0.0004524841408
0.0006292340504
0.0008227318205
0.00102289323
0.001224514275
0.001424954083
0.001622716321
0.001817134336
0.002007732358
0.00219420852
0.0023764218
0.002554362703
0.00272804674
0.002897689252
0.003063826498
0.003227113922
0.003388466086
0.003549584515
0.003712862138
0.003881679215
0.004059861269
0.004251275396
0.004460185638
0.004693102469
0.0049610293
0.00527960165
0.005668934262
0.006159507425
0.006755954833
0.007469234389
0.008315549121
0.009275494739
0.0103203636
0.01142048779
0.01252744448
0.01361098478
0.01464237642
0.01559557335
0.01646137661
0.01718466278
0.01786629744
0.01840529882
0.0145779201
0.0001389085659
0.0001924589295
0.0001709281994
0.0001737955211
0.000197575468
0.0002584196837
0.0003739220672
0.0005321740732
0.0007151085481
0.000908930236
0.00110575744
0.001301660472
0.001494764072
0.001684163169
0.001869388247
0.002050224813
0.002226538512
0.00239825959
0.002565365042
0.002728023948
0.002886607855
0.003041634712
0.003193641813
0.003343608875
0.003493277456
0.003645176788
0.003802465647
0.003968666297
0.004147375598
0.004342533769
0.004560159114
0.004810669842
0.005107935881
0.00547066544
0.005919327061
0.006474389065
0.007148732927
0.007967494191
0.008895930799
0.009904540175
0.01095396317
0.01199685605
0.01301258101
0.0139782385
0.0148699178
0.01568151912
0.01636711687
0.01702932346
0.01762263326
0.01456523025
0.0001394739052
0.0001692667834
0.0001772200837
0.0002081741416
0.0002736481722
0.0003849126577
0.0005439095109
0.0007406460467
0.0009599247839
0.00118912748
0.001420502021
0.001650028465
0.00187586583
0.002097207709
0.002313581282
0.002524540761
0.002729721618
0.002929035779
0.003122715959
0.003311162203
0.003494590227
0.003673212379
0.003847433833
0.004018330299
0.004187961391
0.004359305604
0.004535559302
0.00472003536
0.004914965755
0.00512231663
0.005346104304
0.005595546398
0.005884076908
0.006230650345
0.006658049175
0.007188748594
0.007838816888
0.008627527101
0.009523316137
0.01049580812
0.01149258874
0.01248043146
0.01344114895
0.01435299618
0.01519511452
0.01595864168
0.01661983666
0.01726671767
0.01754822464
0.01507176674
0.0001421796074
0.0001448181063
0.0001846344844
0.0002645255473
0.0004026567241
0.0006079477969
0.0008687138131
0.00116259084
0.001469952396
0.00177910566
0.002084500817
0.002383650896
0.002675427797
0.002959441474
0.003235761584
0.003504480569
0.003765657496
0.004019467096
0.004266510199
0.004507703086
0.004743949927
0.004975958035
0.005204412643
0.005430735176
0.005657542175
0.005888608782
0.006128414326
0.00638120012
0.006650279077
0.006939215662
0.00725110251
0.007589376982
0.007956679408
0.008362763836
0.008850327875
0.009410237891
0.01004020414
0.0107403857
0.01149791979
0.01229159273
0.01307979751
0.01384810992
0.01458248449
0.0152694988
0.01589591092
0.01645890769
0.016940034
0.01741446365
0.01755094745
0.01544907905
0.0001393167607
0.0001144854012
0.0001095916715
0.0001262308265
0.0001719796145
0.0002584311457
0.0003924813773
0.0005701917426
0.000778946809
0.00100530785
0.001239634102
0.001476241556
0.001712000126
0.001945192618
0.002174743432
0.002399933624
0.002620245725
0.002835234956
0.003044646111
0.003248433882
0.003446906409
0.003640450179
0.003829515668
0.004014976921
0.004198803436
0.00438392135
0.004574313744
0.004773797898
0.004987092712
0.005220651517
0.005487687439
0.005818380737
0.006253832831
0.006770134703
0.007171496207
0.007619095818
0.008158825106
0.008792727123
0.009543021927
0.01038612464
0.01129807835
0.01224530095
0.01319351138
0.01411252418
0.01497761528
0.01576935156
0.01647153687
0.01703623117
0.01748704612
0.01414440394
0.0001349700645
0.0001099818169
9.440274102e-05
8.360812569e-05
7.647714818e-05
7.165602526e-05
6.843422277e-05
6.64487103e-05
6.551522134e-05
6.553801187e-05
6.646161718e-05
6.824018579e-05
7.081874931e-05
7.412646691e-05
7.807662997e-05
8.257080726e-05
8.750308158e-05
9.279270969e-05
9.841298932e-05
0.0001044188715
0.0001110596896
0.0001188299137
0.0001287661671
0.0001428110858
0.0001643961932
0.0001993090267
0.0002567552
0.0003511524115
0.0005039137923
0.000745983272
0.001117873336
0.001659273431
0.002392856792
0.003357157247
0.004799156114
0.006687806063
0.00903933528
0.01184353153
0.0150357012
0.01854769428
0.02228587258
0.02614749952
0.03002671075
0.03381927372
0.03742818961
0.04076857024
0.04381936043
0.03774434721
0.03976727869
0.02443860369
0.0001340100892
0.0001114253139
9.570285576e-05
8.475937914e-05
7.738935575e-05
7.223338301e-05
6.854440553e-05
6.590218958e-05
6.405955859e-05
6.286808766e-05
6.2237282e-05
6.210871979e-05
6.244132556e-05
6.320545064e-05
6.437396268e-05
6.592383343e-05
6.7829411e-05
7.009662916e-05
7.275363676e-05
7.592499646e-05
7.9876192e-05
8.516726147e-05
9.289730386e-05
0.0001050838546
0.0001252894386
0.0001595914221
0.0002179170453
0.0003157636941
0.0004762676661
0.0007321352134
0.001127208052
0.001716493214
0.002563072746
0.00373568496
0.00530216828
0.007344226149
0.009875625246
0.01289790241
0.01629022906
0.02000688581
0.02398151719
0.02811329165
0.03229187693
0.03639904996
0.04032327703
0.04394750368
0.04719103659
0.03960334697
0.04184894329
0.0308102338
0.0001340644073
0.0001117537822
9.617692909e-05
8.475820361e-05
7.738398328e-05
7.214077491e-05
6.838314581e-05
6.568668377e-05
6.380828928e-05
6.260365903e-05
6.198526965e-05
6.190057884e-05
6.231435975e-05
6.319609442e-05
6.452052077e-05
6.626582099e-05
6.841499178e-05
7.096192443e-05
7.393853882e-05
7.74545004e-05
8.178349888e-05
8.749826229e-05
9.572704964e-05
0.0001085496539
0.0001296300031
0.0001652522331
0.0002255913413
0.0003266325301
0.000492107601
0.0007555593584
0.001162015346
0.001767686225
0.00263992973
0.003851940889
0.005483299152
0.007589219756
0.010180716
0.01327392788
0.01685158599
0.02082092469
0.02509857749
0.02959034256
0.03418340914
0.03875434644
0.04317838261
0.04730080801
0.04823414506
0.03507711526
0.03704199789
0.02900177322
0.0001343375329
0.0001125144544
9.623391474e-05
8.45047792e-05
7.716872412e-05