/*--------------------------------*- C++ -*----------------------------------*\
| =========                 |                                                 |
| \\      /  F ield         | OpenFOAM: The Open Source CFD Toolbox           |
|  \\    /   O peration     | Version:  2.2.1                                 |
|   \\  /    A nd           | Web:      www.OpenFOAM.org                      |
|    \\/     M anipulation  |                                                 |
\*---------------------------------------------------------------------------*/
FoamFile
{
    version     2.0;
    format      ascii;
    class       volScalarField;
    location    "5";
    object      p;
}
// * * * * * * * * * * * * * * * * * * * * * * * * * * * * * * * * * * * * * //

dimensions      [0 2 -2 0 0 0 0];

internalField   nonuniform List<scalar> 
86889
(
589.4747695
589.1311062
588.9958772
588.8289246
588.573746
588.2918044
588.0009964
587.6818775
587.3224394
586.9195554
586.4691404
585.96558
585.4017262
584.7700192
584.0602126
583.2618639
582.3633793
581.3508405
580.2090972
578.9203723
577.4630834
575.8132239
573.9409486
571.8154716
569.3963505
566.640818
563.4900572
559.8812318
555.7339917
550.9525306
545.4074717
538.9685236
531.4879452
522.794772
512.7254702
501.0083633
487.4894495
471.77211
453.5698622
432.5738632
408.4304433
380.8140485
349.4564467
314.1850023
274.9459603
231.8617165
185.2578473
135.9336965
85.33973469
38.84487404
589.3235536
589.0654166
588.8865404
588.6897258
588.4650038
588.2139306
587.9388602
587.6337311
587.2902224
586.9028512
586.4671652
585.9778849
585.4281604
584.8104895
584.1152449
583.3319219
582.449144
581.4528088
580.3280851
579.0583465
577.6203615
575.9933672
574.1458803
572.0477013
569.6623095
566.943263
563.8348753
560.2743833
556.1827417
551.4663669
546.0057143
539.66357
532.3008242
523.7341657
513.7850075
502.2007418
488.9159854
473.3003044
455.2335629
434.3995407
410.4021885
382.8963291
351.6021886
316.3284021
276.9917999
233.6752803
186.6442237
136.5699105
85.21808301
38.00053635
589.3239855
589.1525311
589.0051404
588.8278217
588.6157409
588.3746141
588.1096384
587.8089304
587.4648576
587.0763578
586.641571
586.1553459
585.6111894
585.002007
584.317994
583.5501561
582.6859495
581.7128239
580.6157223
579.3752883
577.974092
576.3862799
574.5875354
572.544126
570.2228386
567.576959
564.5573528
561.0998399
557.1317822
552.5573635
547.2671223
541.1178402
533.9753031
525.6516168
515.9662554
504.6746025
491.6999239
476.4500971
458.7367822
438.2427887
414.5314876
387.2560464
356.0950423
320.8451865
281.3577976
237.6924167
190.1118592
139.9072244
86.83579157
39.34295083
589.3321286
589.1552712
588.9931122
588.7966391
588.5991959
588.3777334
588.1164436
587.8312765
587.5084971
587.1408066
586.7286606
586.2690126
585.7545137
585.1768682
584.5279143
583.7963278
582.9723369
582.0417889
580.9910275
579.8031774
578.4596879
576.9377785
575.2124079
573.2540549
571.0280393
568.4953298
565.6062702
562.3019381
558.5097524
554.1459629
549.0955374
543.2337882
536.413451
528.4525267
519.1475454
508.2729055
495.6302497
480.8670651
463.6633223
443.6445865
420.3687013
393.4422897
362.5126083
327.2995112
287.6315551
243.5915235
195.6513138
144.7391008
89.56076904
40.58978254
589.414159
589.2523239
589.1137361
588.9361597
588.75701
588.5712567
588.3369298
588.0639544
587.7552552
587.4018618
587.0024849
586.5580368
586.0616668
585.5071644
584.8863092
584.1900164
583.4071111
582.5244807
581.5284224
580.4032376
579.1306877
577.6902499
576.0573412
574.2063732
572.1035377
569.7143006
566.993094
563.8852979
560.3230125
556.225071
551.4832686
545.9758843
539.5541508
532.0384187
523.2280639
512.9061753
500.8349932
486.724508
470.1905345
450.7971432
428.1043319
401.6500033
371.02864
335.8900434
296.0042183
251.5573218
202.7490274
150.1095718
92.94503234
42.14115971
589.5067559
589.3416899
589.201158
589.0198027
588.837285
588.6563418
588.4447667
588.1848106
587.8940844
587.5680507
587.1986222
586.7900597
586.3352388
585.8252322
585.2525865
584.6091061
583.8849004
583.067955
582.1449446
581.1011589
579.9192137
578.5799996
577.0613701
575.3396271
573.3847652
571.1661671
568.6444281
565.7693503
562.4783726
558.6988848
554.3283402
549.2401412
543.279789
536.2805998
528.0613277
518.3992748
507.0525536
493.7135681
477.980891
459.375147
437.3890703
411.5230496
381.3021961
346.2804162
306.1426153
261.0231312
210.8366506
156.4921696
97.02969796
43.95160886
589.6467747
589.4898438
589.3622906
589.1974124
589.0322367
588.8694293
588.6835641
588.4586133
588.1899671
587.8777759
587.5357965
587.1560727
586.7346392
586.2643788
585.7384186
585.1491029
584.4871927
583.7416351
582.8997831
581.9475215
580.8681269
579.6434333
578.2531345
576.6755479
574.8852322
572.855713
570.554366
567.9381972
564.9539951
561.5322195
557.5708955
552.9518403
547.5162068
541.1165162
533.5748449
524.6739601
514.1510474
501.6849059
486.8515692
469.1282101
447.9524577
422.7641261
393.0196589
358.1428542
317.6880757
271.5998988
219.9708423
163.8627104
101.7455468
46.07493496
589.7992485
589.6418916
589.5164561
589.3538367
589.1939867
589.0380834
588.866346
588.6621107
588.4188468
588.141876
587.8346364
587.4959126
587.1209742
586.7034301
586.2369162
585.7145041
585.127781
584.4665752
583.7189155
582.8712066
581.9078904
580.8116424
579.5634436
578.1433939
576.5298402
574.7028967
572.6353862
570.2967884
567.6413327
564.60239
561.0853781
556.9766529
552.1161499
546.3559037
539.526843
531.3852546
521.7313835
510.2391747
496.4229673
479.6840311
459.4051015
434.967405
405.7373994
371.023775
330.2409123
283.1525448
229.906571
171.9140837
106.8648559
48.3598503
589.9846046
589.8329892
589.7174623
589.5675825
589.4252897
589.2843414
589.1282095
588.9552022
588.7444688
588.5000299
588.2246819
587.9232793
587.5932285
587.2283357
586.822526
586.3696608
585.8622959
585.2910869
584.6447703
583.909968
583.0714218
582.1115773
581.012794
579.7569373
578.3225164
576.6984765
574.8663607
572.8112595
570.4951355
567.8497565
564.7958208
561.2210525
556.9712328
551.9096925
545.866026
538.5871673
529.8798414
519.373623
506.570021
490.8274367
471.4669541
447.7938889
419.0881643
384.5225661
343.4249846
295.3737609
240.4575799
180.4757047
112.3560507
50.85668264
590.181957
590.0314817
589.9185623
589.7749581
589.6371883
589.5137486
589.3787589
589.2261164
589.0426331
588.8358136
588.5990845
588.3411911
588.0624453
587.7571337
587.4194643
587.0441143
586.6246438
586.1524903
585.6170508
585.0047254
584.3007082
583.4868115
582.5432273
581.4547901
580.2009419
578.7708308
577.1654857
575.3824516
573.4044663
571.1750131
568.6122522
565.5867651
561.933503
557.5124062
552.1622786
545.6601426
537.8945927
528.50045
516.8434811
502.1626377
483.748442
460.8412667
432.6244878
398.1798916
356.712054
307.6811668
251.0746934
188.965812
117.7638872
53.29315772
590.4020208
590.2557879
590.1533416
590.0193378
589.8972161
589.7896641
589.6755243
589.5471291
589.3924954
589.2202441
589.0227504
588.8095126
588.5825844
588.3375416
588.0695447
587.7742785
587.4463519
587.0780403
586.6595785
586.17772
585.6167596
584.9563679
584.1713389
583.2459329
582.163997
580.9165855
579.5083029
577.9571124
576.2744708
574.4436024
572.3761833
569.9462043
566.9957315
563.3597017
558.8035989
553.1247339
546.182933
537.684644
527.0662106
513.4082103
495.9183836
473.7391999
445.9634405
411.5992364
369.7320842
319.7637158
261.5659032
197.3774423
123.1645506
55.78156782
590.6267201
590.4836341
590.3864699
590.2619288
590.1526142
590.0604441
589.9658693
589.8612352
589.7347724
589.5967693
589.4394176
589.2727064
589.0998357
588.9175974
588.7222607
588.5107423
588.2787819
588.0196603
587.7254117
587.3831455
586.9720027
586.4693509
585.8476744
585.0820876
584.1587448
583.0748205
581.8485018
580.5216593
579.1414277
577.7036326
576.1023768
574.1581225
571.6962077
568.5250963
564.51693
559.5356775
553.7658955
546.662434
537.174616
524.5376523
507.8905554
486.3497049
458.9188327
424.510681
382.1423784
331.1456756
271.3381883
205.0458128
128.0388704
57.99203873
590.8682338
590.7281594
590.6372731
590.5223868
590.4263075
590.3506883
590.276326
590.1962795
590.0982181
589.9942776
589.8767106
589.7560215
589.6366209
589.5166704
589.3937466
589.2662225
589.1312394
588.9842845
588.8203922
588.6214976
588.3650503
588.0269398
587.5768512
586.9698507
586.1739092
585.1863127
584.0368895
582.8191805
581.6616253
580.6326369
579.6058105
578.3776936
576.7417416
574.4202201
571.1185704
566.5206315
561.0900799
554.6567888
546.3676747
534.8951357
519.1724208
498.2664568
471.1328522
436.6882196
393.8388751
341.8994385
280.6033581
212.3330229
132.7033153
60.15170758
591.1125869
590.9751946
590.8897573
590.7837493
590.6995158
590.6392519
590.5837286
590.5266439
590.4561038
590.3848768
590.305434
590.229309
590.1620156
590.1028988
590.0509402
590.006209
589.9670435
589.9338628
589.9015208
589.8484959
589.7522407
589.5887329
589.3180837
588.8857886
588.2443451
587.3815501
586.3480629
585.2370431
584.2654131
583.5163264
582.8001446
581.9310511
580.6141235
578.6687814
575.7370358
571.5619884
568.192345
563.3400257
555.7893936
545.058964
530.1187883
509.7127569
482.7550771
448.1412829
404.7042241
351.716709
288.9168514
218.7555575
136.796522
62.02404636
591.3625145
591.2279752
591.1480896
591.050964
590.9778983
590.9328911
590.8956823
590.8604617
590.8163754
590.7764319
590.7331434
590.6991275
590.6810431
590.679428
590.6947091
590.7288775
590.7819888
590.8587873
590.9537041
591.0454294
591.1149604
591.1240175
591.0181761
590.7205829
590.1517873
589.250478
588.0352657
586.7670196
586.100714
585.9867265
586.0705576
585.9720975
585.5080524
584.5449086
581.8908232
575.9773034
572.9512729
569.7974528
563.643761
554.0764221
539.9687126
520.0705158
493.4206736
458.7800247
414.9416678
361.0630839
296.9030257
225.0106154
140.8330642
63.93894496
591.6121207
591.4799725
591.4049637
591.3156825
591.253648
591.2218671
591.2013422
591.1861512
591.1663065
591.1548526
591.1447167
591.1490295
591.1755516
591.2260027
591.3021411
591.4076814
591.5449018
591.7214633
591.9340616
592.1676953
592.4096045
592.6138208
592.7311319
592.6837879
592.3554439
591.621847
590.4100303
588.9004441
588.0565172
587.9441576
588.1745375
588.2942887
588.0452095
587.1630809
585.2737155
582.09297
580.0674229
577.1723435
571.737139
562.8646862
549.3180866
529.8936164
503.3996087
468.6073264
424.3297478
369.5718264
304.1420289
230.5596072
144.3723021
65.55582793
591.8605639
591.730791
591.6604489
591.5784015
591.5261469
591.5067074
591.5015046
591.5044656
591.5063456
591.5201295
591.53986
591.5781691
591.6437286
591.7394531
591.8681749
592.0350741
592.2435366
592.5053001
592.8125565
593.1583317
593.5217519
593.8624013
594.1039731
594.1769177
593.9565093
593.1697268
591.519676
589.5366178
589.657731
591.0331356
591.498356
591.5599506
591.4314584
590.9111726
589.7049975
587.2959362
584.9013783
582.2221237
577.9613518
570.1793421
557.3851692
538.5171671
512.3693762
477.6944658
433.2285813
377.8797371
311.3812803
236.3041623
148.0200183
67.22031573
592.1045251
591.9766973
591.9105248
591.8348728
591.7911197
591.7824189
591.7903031
591.808994
591.8296723
591.8650732
591.9099761
591.9768688
592.0748509
592.207499
592.3782756
592.5933776
592.8569525
593.1851095
593.5701204
594.0169357
594.5115662
595.0287542
595.5065513
595.8713362
596.0331499
595.4142251
593.7917272
590.5257546
591.0976532
591.7313936
593.0129194
593.8473632
594.0084325
593.7130899
592.8747934
591.1959643
589.6025702
587.6246613
584.0413663
576.9450861
564.6864036
546.2694053
520.3050667
485.7313512
441.1344625
385.2900094
317.8741195
241.3903516
151.360657
68.80287971
592.342211
592.2161057
592.153687
592.0835522
592.0472227
592.0479304
592.0672854
592.0995686
592.1357947
592.1892422
592.2540506
592.3436517
592.4671232
592.6278887
592.8294948
593.0779531
593.3776456
593.7412063
594.1628802
594.6364598
595.1433724
595.644632
596.0663562
596.3444735
596.3647283
595.8405017
594.4838631
592.847587
593.3172002
595.0582218
595.9616547
596.4996839
596.8069981
597.0476122
596.4395179
594.862745
593.5943466
591.7920834
588.3062831
581.6238392
569.9100475
552.0452798
526.6859675
492.5416483
448.1120111
392.1267064
324.0682352
246.4005467
154.6939195
70.2803918
592.5717585
592.4470456
592.3876704
592.3220319
592.291769
592.3001355
592.3286975
592.3719632
592.4203347
592.4875711
592.5673325
592.6736772
592.8152867
592.9950138
593.2159862
593.4835255
593.8017888
594.180449
594.6191758
595.1057477
595.6305119
596.1518223
596.6242217
596.9766088
597.0986485
596.8773367
596.2744658
595.4117193
595.3276883
596.0345588
597.052734
598.2767706
598.5693571
599.5456155
598.7737992
596.6244694
596.6174634
595.2353728
591.7438681
585.0806931
573.6541752
556.1792092
531.2475839
497.4084674
453.1318826
397.099488
328.6818673
250.0789154
157.235606
71.41912472
592.7917158
592.6681744
592.6114637
592.549272
592.5241586
592.5387197
592.5746088
592.6264336
592.6839276
592.7610413
592.8516375
592.9693821
593.1223644
593.3128495
593.5432517
593.8178689
594.1394218
594.5159361
594.9456427
595.4110993
595.8983517
596.3739596
596.7909067
597.079578
597.1679332
597.0067595
596.6160617
596.275859
596.6418464
597.7070853
598.8798042
600.3314803
600.2507984
602.0073785
601.3108685
597.0086098
597.5837748
596.9062678
593.2213072
586.4112777
575.15724
557.9984109
533.500994
500.1053958
456.1896041
400.3790945
331.8621636
252.756981
159.1750527
72.27020154
593.0006712
592.8777876
592.8229082
592.7631321
592.7415948
592.7603591
592.801343
592.858944
592.9222883
593.0053408
593.1022745
593.2259773
593.3838578
593.5774949
593.8084177
594.0796171
594.3928644
594.7524975
595.1583969
595.5934855
596.0409431
596.4840558
596.8903994
597.2139416
597.4211772
597.4991778
597.5125733
597.5788322
597.9300631
598.6390855
599.44926
600.3790861
600.6016647
601.2307271
601.1784764
599.0356927
598.5318005
596.8665364
592.7495695
585.5781591
574.182472
557.0744846
532.726253
499.5749823
455.9666889
400.4487916
332.1412823
253.096464
159.432321
72.38901789
593.198258
593.0761059
593.0228814
592.965111
592.9465324
592.9684749
593.0130831
593.0742763
593.1414499
593.2277016
593.3273606
593.4527011
593.6104032
593.8012662
594.0259105
594.2861645
594.5831725
594.9171068
595.2881997
595.6843948
596.0895855
596.4873029
596.8558756
597.1646597
597.3880857
597.5175902
597.6114417
597.7788758
598.1530171
598.8014276
599.577637
600.3107976
600.7146321
600.9023427
600.38764
598.8515901
597.3559851
594.9162225
590.3435667
582.6483026
570.7567934
553.3469389
528.9230026
495.8695847
452.4973112
397.3579666
329.556077
251.1775526
158.1917309
71.83460201
593.3824218
593.2601543
593.2071346
593.1497955
593.1323799
593.1553857
593.2009753
593.2628216
593.3310089
593.4170707
593.5155383
593.6384772
593.7916798
593.9749662
594.1880424
594.4317129
594.7061881
595.009813
595.3404531
595.6917891
596.0498266
596.4004003
596.7253267
597.0142381
597.2536284
597.4446009
597.6348646
597.8826769
598.2330426
598.6963832
599.1787463
599.5490095
599.6435327
599.4150245
598.6678099
597.1502577
594.8999657
591.4716756
585.9901828
577.4368583
564.7372783
546.6667248
521.7911
488.5053382
445.1644139
390.3997497
323.3738859
246.2190984
154.8876984
70.3100598
593.5556528
593.4339807
593.3819561
593.3266067
593.3101093
593.3341927
593.3804016
593.4423408
593.5102978
593.5942448
593.6890865
593.806611
593.9517653
594.1234561
594.3206142
594.5431792
594.7905646
595.0604708
595.3492646
595.6506364
595.9563191
596.2542413
596.5293702
596.7750361
596.9846218
597.1530275
597.3079873
597.476975
597.6779449
597.9059753
598.0889425
598.1046551
597.7945832
597.0458441
595.7219707
593.5852404
590.5257642
586.1445386
579.6392993
570.0361641
556.309035
537.3119627
511.6971968
477.9431159
434.5069495
380.1492168
314.1986264
238.8979677
150.0365811
68.07682159
593.7133577
593.5902899
593.5360504
593.4804512
593.4610701
593.4829706
593.5264196
593.5853622
593.6499563
593.7286534
593.8176558
593.9282538
594.0638449
594.2222778
594.4017753
594.6015424
594.8201789
595.0547774
595.3010144
595.5522835
595.8015159
596.039215
596.2539841
596.439418
596.5856871
596.6902872
596.7663602
596.8224666
596.8562098
596.8264008
596.6548724
596.2389664
595.4360674
594.1370056
592.1410009
589.2655232
585.2535329
579.69664
571.8987327
560.9749271
545.9539906
525.7560561
499.1422013
464.6906221
421.0384911
367.0939124
302.4513743
229.4268688
143.7290846
65.16883762
593.864875
593.7422597
593.6888575
593.630621
593.6148114
593.638742
593.6813547
593.7388078
593.8007782
593.8694469
593.9507898
594.0526522
594.1756669
594.3173799
594.47596
594.6499963
594.837276
595.0342328
595.2359473
595.435999
595.6267194
595.7986404
595.9429181
596.0502778
596.10846
596.1143214
596.0608593
595.9424224
595.7353083
595.3782899
594.795837
593.8867875
592.4999165
590.5026447
587.7291247
583.9137959
578.835979
572.046173
562.8975495
550.5543354
534.1104271
512.5702266
484.8239983
449.5905676
405.7058228
352.2935071
289.1963
218.7531338
136.7290754
61.97345564
593.9935526
593.8684285
593.8101134
593.7477731
593.7247271
593.742059
593.7824568
593.8336909
593.88695
593.9468569
594.022741
594.1180386
594.2306111
594.3578133
594.4976267
594.6480679
594.8059986
594.9672035
595.126004
595.2756065
595.4076344
595.5127549
595.5796835
595.5972103
595.5515964
595.4319008
595.219051
594.8922377
594.4126226
593.7209718
592.7226723
591.31154
589.3318494
586.6364856
583.0627232
578.259894
572.0254457
563.9287937
553.3511525
539.5142976
521.5741175
498.625117
469.6829749
433.6631621
389.5694562
336.8259127
275.4220719
207.4633291
129.4299434
58.6612955
594.1225726
593.9991
593.9424714
593.8852353
593.8661858
593.8887994
593.9296003
593.9751558
594.017957
594.068626
594.1331936
594.2157339
594.3126314
594.4207659
594.5380544
594.6618414
594.7883215
594.9122437
595.0273137
595.1257318
595.1983593
595.2341637
595.2202567
595.1423963
594.9828792
594.7223233
594.3343711
593.7823322
593.0188012
591.9745491
590.5463008
588.6125135
586.0108944
582.5748487
578.1080845
572.3433428
564.9759493
555.5822323
543.5879274
528.2856829
508.8919413
484.5850244
454.5111836
417.7813504
373.5943266
321.6355282
262.0248926
196.4467642
122.3515378
55.47517152
594.2284328
594.0994191
594.0342605
593.9666456
593.9375976
593.9505861
593.9758233
593.9979828
594.0360553
594.0873286
594.15217
594.2319524
594.3211968
594.417935
594.5198477
594.6237815
594.7249462
594.8175396
594.8943006
594.9467315
594.9643025
594.9347812
594.8424953
594.6709321
594.3965604
593.9939397
593.4294098
592.6555253
591.61224
590.2216926
588.3800189
585.9415153
582.7472578
578.6124526
573.3221894
566.6080298
558.1607736
547.5562927
534.2471275
517.576343
496.8321841
471.2848847
440.1969443
402.856441
358.6830839
307.6237508
249.785449
186.3696774
115.8840993
52.56739959
594.3419444
594.2167981
594.1563737
594.0972661
594.0783668
594.0960826
594.1108369
594.1331427
594.1678036
594.208691
594.2590173
594.3185629
594.3895562
594.4658614
594.5461682
594.6258668
594.6990624
594.7590699
594.7979361
594.8057551
594.7707997
594.6791682
594.5125071
594.2511573
593.8672503
593.3286971
592.5960579
591.6122771
590.3108014
588.6033953
586.3781246
583.4809526
579.7372838
574.9620706
568.9133255
561.3205852
551.892704
540.1905433
525.6964457
507.8054931
485.8921786
459.2817128
427.3517593
389.538584
345.4349116
295.0995425
238.9267351
177.5832864
110.2283233
50.01602451
594.429652
594.2915828
594.2108626
594.1375737
594.1034578
594.0903923
594.0853103
594.10457
594.136308
594.1758454
594.2265211
594.2882021
594.3576887
594.4326244
594.5057445
594.5735013
594.6296376
594.6675044
594.6784359
594.6517572
594.5748416
594.431877
594.2027315
593.8639383
593.3846641
592.7287765
591.8485036
590.6835369
589.1538985
587.1748691
584.6085114
581.3098338
577.1058609
571.7684675
565.0853503
556.7644674
546.5294539
533.89286
518.4071655
499.5344143
476.65455
449.1950748
416.6164027
378.4779125
334.4794131
284.6603649
229.6329197
170.3116645
105.5382901
47.87716589
594.5459383
594.4116429
594.3458545
594.2930232
594.2528661
594.2302579
594.2296773
594.2396627
594.2570621
594.2847039
594.3232249
594.370322
594.4234672
594.4793843
594.5337484
594.580613
594.6151264
594.6294058
594.6137892
594.555633
594.4425396
594.2555695
593.9747586
593.572053
593.0162314
592.2626487
591.2647483
589.9495781
588.2443514
586.036969
583.210054
579.5922132
575.0216661
569.259525
562.0917516
553.1967535
542.3971649
529.0223904
512.7735147
493.1511907
469.542036
441.4610702
408.402373
370.0636088
326.1785675
276.8653537
222.4049149
164.015195
101.9080746
46.18004208
594.6316003
594.4143486
594.3192456
594.2501425
594.1934345
594.1610751
594.1538714
594.1650493
594.1894234
594.2247893
594.2695515
594.3217597
594.3784395
594.4360762
594.4899733
594.5345165
594.5630366
594.5675774
594.538886
594.4647878
594.3300552
594.1163255
593.7997085
593.3538721
592.7425488
591.9240302
590.8400714
589.4244193
587.5909313
585.2307933
582.2127664
578.3706593
573.5316687
567.470884
559.9545309
550.6716155
539.4592975
525.5948898
508.8163035
488.6630528
464.5791451
436.0764279
402.7320308
364.2538867
320.4799749
271.4982208
217.6160272
159.6897687
99.77472072
44.54921418
594.8212987
594.5177348
594.4656503
594.4270859
594.3457485
594.2851816
594.2637669
594.2630684
594.2739565
594.2964321
594.329801
594.3713983
594.4180639
594.4660991
594.5104788
594.545576
594.5647088
594.5594838
594.5199945
594.4338969
594.2853685
594.0555815
593.7208223
593.2525373
592.6160683
591.76336
590.6391816
589.1747239
587.2809585
584.8417639
581.7295691
577.7767075
572.8053628
566.5777723
558.8986716
549.4456942
537.9452294
523.9076574
506.907271
486.499964
462.1792367
433.4784022
399.9964349
361.4659363
317.7724341
269.0535697
215.7097777
158.7103739
99.82703949
45.34900515
589.2933874
589.0097424
588.8151709
588.6597054
588.4322188
588.176944
587.9064097
587.6047484
587.2605112
586.8704788
586.4310671
585.9368474
585.3806225
584.7546383
584.0500827
583.2570349
582.3630751
581.355386
580.2175727
578.9333805
577.4805267
575.8369779
573.9729989
571.8584504
569.4539764
566.7128444
563.5839665
559.9979792
555.8824418
551.1325808
545.6416615
539.2584769
531.846701
523.18562
513.2092254
501.6089452
488.1303515
472.6526628
454.6517963
433.8118066
409.7834207
382.2593778
350.9885747
315.7649367
276.5066293
233.3116019
186.5358009
137.4372782
85.65088696
38.30221615
589.1574604
588.9445677
588.7345855
588.5004739
588.3082095
588.0884783
587.8298826
587.5393832
587.211103
586.8372194
586.4129691
585.9336199
585.3929436
584.7832037
584.0952584
583.3189724
582.4417812
581.4517355
580.3331236
579.0695463
577.6394363
576.0189805
574.1820865
572.097144
569.7251502
567.0247567
563.9417696
560.4103472
556.3569051
551.6866092
546.2819892
540.008661
532.7117644
524.2203555
514.3502329
502.8645308
489.5602438
474.2080624
456.3881363
435.7162039
411.8382275
384.4408239
353.2575362
318.042067
278.6793416
235.1955629
187.8379027
136.8053318
87.6215226
38.1814527
589.1571112
589.0232941
588.8610323
588.6468359
588.4458919
588.2399075
587.9997638
587.7146479
587.3835353
587.0071748
586.5834141
586.1070065
585.5707537
584.9683763
584.2893117
583.5258596
582.6651205
581.6953607
580.6019865
579.3646636
577.9658857
576.38472
574.5908937
572.5597849
570.2504406
567.6226168
564.6225615
561.1920857
557.2547244
552.7216402
547.4751381
541.3963127
534.3169832
526.0576116
516.4322816
505.2174843
492.2170795
477.1472881
459.6404277
439.2747103
415.6866493
388.5391437
357.5281174
322.3418808
282.8267755
238.9932254
191.1540083
139.6904169
90.64527613
39.916172
589.1745257
589.0453464
588.888733
588.662976
588.4110549
588.2041011
587.9899286
587.727653
587.4171059
587.0622796
586.6633002
586.2149577
585.7097897
585.1433628
584.5032744
583.7782611
582.9592858
582.0339898
580.988885
579.8068307
578.4694432
576.9558553
575.2413281
573.2973988
571.0895148
568.5772511
565.7160544
562.4455249
558.698435
554.3894915
549.4102504
543.6326324
536.924749
529.0885353
519.9208185
509.1927516
496.6866828
482.1543186
465.2036515
445.3984749
422.3374146
395.6537514
364.9452851
329.8580177
290.1552194
245.8324218
197.4510932
143.0462165
92.68013394
41.30015124
589.2558979
589.1479085
589.0170608
588.8319202
588.6168797
588.3929291
588.194879
587.9582613
587.6655979
587.3222852
586.9364958
586.5017838
586.0177768
585.470335
584.8570059
584.1675758
583.3907258
582.5138074
581.5239467
580.4057119
579.1414476
577.7104668
576.0893643
574.2517916
572.1675948
569.7991559
567.1062069
564.0360866
560.522857
556.4901217
551.8312813
546.4274835
540.1345585
532.7691041
524.1119889
513.9429267
502.0977482
488.2746627
472.0447968
452.9538908
430.5541841
404.4396092
374.131227
339.1892295
299.2743996
254.264591
205.1288145
148.2277652
95.25411041
42.81255512
589.3503158
589.242254
589.1129305
588.9329257
588.7223394
588.4976911
588.2710753
588.05719
587.799338
587.4826519
587.1246044
586.7302963
586.2868958
585.7865968
585.222553
584.5863319
583.8684913
583.0577124
582.141759
581.1062264
579.9339721
578.6058023
577.1000031
575.3931553
573.4580946
571.2624088
568.7720251
565.938984
562.7032937
558.998099
554.7139023
549.7597329
543.9634117
537.1657889
529.132838
519.6623485
508.5658035
495.5620609
480.1916992
461.9471856
440.3625789
414.9930135
385.2212976
350.5008879
310.3704307
264.4831648
214.009482
154.7739878
99.68253244
44.87028779
589.4904916
589.3904228
589.2752463
589.1164627
588.9353091
588.7401319
588.5302486
588.3089964
588.0719424
587.7921864
587.4630303
587.0946803
586.684422
586.2243945
585.7075881
585.1265404
584.4723488
583.7337215
582.8991382
581.9548562
580.8852323
579.6720811
578.2954383
576.7340874
574.9647232
572.9604366
570.6927346
568.1226057
565.1994681
561.8598824
557.9981085
553.54701
548.3221393
542.1581032
534.8137957
526.1344105
515.8943817
503.8145758
489.4131007
472.1300378
451.4538292
426.9342319
397.7917432
363.358194
323.0393076
276.3504032
224.2690581
162.5262913
104.8942444
47.28418655
589.6436117
589.544064
589.4307692
589.2764889
589.1019866
588.9211676
588.7253663
588.5160536
588.289161
588.0416624
587.7567506
587.4328013
587.069416
586.6621935
586.2051728
585.6917892
585.1137989
584.4612767
583.7222729
582.8840125
581.9314403
580.8473709
579.6134422
578.2103908
576.6177703
574.8169604
572.7863754
570.4957586
567.9054115
564.952814
561.5528292
557.6405674
553.0349518
547.5329684
540.9245659
533.0548662
523.723672
512.6539282
499.3207749
483.0988791
463.4348726
439.8162858
411.3720504
377.2803326
336.773742
289.2662344
235.4139567
170.9858608
110.5937024
49.89412421
589.8291372
589.7349895
589.6311023
589.4912666
589.3360838
589.1723423
589.0046131
588.8214197
588.6130018
588.387511
588.1402567
587.8594437
587.5420695
587.187077
586.7908312
586.3473497
585.8491291
585.2872438
584.6510452
583.9274122
583.1010341
582.1551624
581.0720165
579.8333553
578.4216509
576.8244338
575.0308319
573.025282
570.7733292
568.2233479
565.3046862
561.955845
558.0181715
553.2810361
547.5235426
540.5619074
532.1619869
522.0921427
509.8198438
494.6770381
476.0431689
453.3473136
425.5948138
391.8454207
351.1425135
302.7677111
247.0493429
179.9759674
116.7231825
52.74223897
590.0268067
589.9338094
589.8329455
589.6998785
589.5508005
589.4062941
589.2582349
589.0991553
588.9179186
588.7143844
588.5073238
588.2755798
588.0115246
587.7161327
587.3883009
587.0231452
586.6138816
586.1523456
585.62846
585.0293806
584.3397618
583.5421032
582.615255
581.5419091
580.3061355
578.9058158
577.3397723
575.6070879
573.6962137
571.567573
569.1481237
566.3559297
563.0079725
558.9044727
553.79532
547.6919846
540.4196129
531.5868118
520.5084908
506.4751372
488.8714082
467.0500857
439.9157496
406.4288932
365.5075108
316.2260991
258.55807
188.8865204
122.7578464
55.51333777
590.2474529
590.1585983
590.0667431
589.9443604
589.8109348
589.6834564
589.5564829
589.4225202
589.2698172
589.0980887
588.9295903
588.7436982
588.5323648
588.297543
588.0397297
587.7554146
587.438923
587.0831094
586.6785973
586.2120395
585.6655695
585.0214079
584.2567631
583.3537858
582.2904543
581.0631436
579.687615
578.1816415
576.5699577
574.8467603
572.9317624
570.7371522
568.1108579
564.8860604
560.6082666
555.3199406
548.9405284
541.0779598
531.1143423
518.1714354
501.5601895
480.5040766
453.8977959
420.6206934
379.4877905
329.3555678
269.8775644
197.6973335
128.7731054
58.32844604
590.4721494
590.3866677
590.2998723
590.1872293
590.0664912
589.955008
589.8478147
589.7378898
589.6135016
589.4745948
589.3453023
589.2062039
589.0496468
588.8782018
588.6936491
588.494063
588.2752041
588.0313235
587.7537025
587.4270803
587.0336815
586.5529946
585.9555315
585.2181041
584.315201
583.2368774
582.020047
580.7247552
579.4111075
578.0975386
576.6570007
574.9324967
572.7009602
569.809031
566.0547409
561.3944778
556.6011583
550.3697846
541.5903901
529.6459351
513.9429382
493.5659226
467.3751181
434.1291592
392.5719114
341.4488564
280.2949391
205.6783144
134.1802778
60.83392226
590.7138494
590.631187
590.5501059
590.4476604
590.3400385
590.2456544
590.1586811
590.0733681
589.9779455
589.8725647
589.7825239
589.6896437
589.5870373
589.4783864
589.3669678
589.2526301
589.1330702
589.0043697
588.8580479
588.6788605
588.4487917
588.1424087
587.7233485
587.1454261
586.3701966
585.374435
584.1810677
582.948644
581.8552072
580.9760876
580.1521611
579.1497644
577.766402
575.6975072
572.4252744
568.3536539
563.5588757
558.5266465
551.2790131
540.5589287
525.7905591
506.0613966
480.218575
446.9762335
404.9859164
352.8826758
290.1207668
213.1597045
139.1934445
63.13147955
590.9582958
590.8783313
590.8025162
590.7090711
590.6134816
590.5342508
590.466585
590.4044078
590.3363438
590.2632908
590.2112925
590.1630371
590.11282
590.0655125
590.0259274
589.9957973
589.9751178
589.9622631
589.9486859
589.9225001
589.8656218
589.7473477
589.5221578
589.1316836
588.5073172
587.6235093
586.4768627
585.257983
584.3201433
583.7523861
583.2911136
582.6308973
581.5998185
579.8577916
575.4343894
571.0675372
572.8602539
567.4155787
560.2806113
550.6682303
536.8562934
517.7158999
492.1983899
458.7984973
416.2300223
363.070888
298.7765403
219.6992681
143.5451503
65.13305992
591.2083225
591.131138