/*--------------------------------*- C++ -*----------------------------------*\
| =========                 |                                                 |
| \\      /  F ield         | OpenFOAM: The Open Source CFD Toolbox           |
|  \\    /   O peration     | Version:  2.2.1                                 |
|   \\  /    A nd           | Web:      www.OpenFOAM.org                      |
|    \\/     M anipulation  |                                                 |
\*---------------------------------------------------------------------------*/
FoamFile
{
    version     2.0;
    format      ascii;
    class       surfaceScalarField;
    location    "5";
    object      phi;
}
// * * * * * * * * * * * * * * * * * * * * * * * * * * * * * * * * * * * * * //

dimensions      [0 3 -1 0 0 0 0];

internalField   nonuniform List<scalar> 
265716
(
38.35029203
-1.274429579
-0.8309839984
-41.8829889
2.907670773
2.730439874
39.77419579
-0.8982338074
-0.150231458
-0.07222178733
-0.3032165324
40.03363414
-0.1413081107
0.1181755611
-0.07986694633
-0.1564386756
40.09216704
0.01848278412
0.06103730486
-0.0581615276
-0.07989125518
40.11939125
0.03337056379
0.04058294827
-0.0476302957
-0.05354722209
40.13674219
0.03314127678
0.03662900784
-0.04197632561
-0.04514459713
40.15085761
0.03193371866
0.03424219199
-0.03863315759
-0.04165786954
40.16335017
0.03063242132
0.03226975511
-0.03607214843
-0.03932220898
40.17477859
0.02910856206
0.03045279043
-0.03367090336
-0.03731855785
40.18541761
0.02750176268
0.02892200277
-0.0314526233
-0.03560974115
40.19551942
0.02587555228
0.02767259142
-0.02951060131
-0.03413902314
40.20528872
0.02420680921
0.02667624155
-0.02783354275
-0.03281830806
40.21477576
0.02243808246
0.02592774765
-0.0262578905
-0.03159460861
40.22394476
0.02054288191
0.02544294662
-0.02471976971
-0.03043448813
40.2329274
0.01850705143
0.0253033152
-0.02330183045
-0.02949077562
40.24181607
0.01637201926
0.02551626325
-0.0220868593
-0.02868944987
40.25060392
0.01413391373
0.02598692113
-0.02096688443
-0.0279413737
40.25902291
0.01166689187
0.02677661709
-0.01973002055
-0.02713175084
40.26701019
0.008990114851
0.02787807618
-0.01830097758
-0.02655401165
40.27413877
0.006253875505
0.02964420723
-0.01683880755
-0.02618698599
40.28046292
0.003601112882
0.03176312951
-0.01553551126
-0.02615232769
40.28547248
0.001071369305
0.03481615203
-0.01463169256
-0.02626441117
40.28870865
-0.001503473883
0.03850028523
-0.01383589688
-0.02639658835
40.28925232
-0.004177312977
0.04267540908
-0.01269109642
-0.02634976223
40.28533217
-0.007038094521
0.04872244349
-0.0113522826
-0.02641171819
40.27665215
-0.009342887376
0.05510706445
-0.01004524838
-0.02703833578
40.26254019
-0.01118531181
0.0619483106
-0.009156954071
-0.02749445365
40.24218137
-0.01265512195
0.07125958117
-0.008646062782
-0.02959947157
40.21756696
-0.01352992287
0.0807743746
-0.01051044233
-0.03211995445
40.19340374
-0.01373322067
0.088943605
-0.01565342492
-0.035392649
40.17665284
-0.01262243442
0.09899283988
-0.03085809807
-0.03876132468
40.18133549
-0.007241860218
0.10894824
-0.06319756451
-0.04319150091
40.22420607
0.0004922733197
0.1125092801
-0.1081513808
-0.04772325791
40.28513789
-0.006544811364
0.1154487832
-0.1235369186
-0.04629997943
40.29490554
-0.05713540878
0.0773871708
-0.02289756821
-0.007122980321
40.18574972
-0.08359015003
0.04518330486
0.05690121706
0.09066067248
39.79516199
-0.1269378736
0.04400392286
0.1598084968
0.3137123468
39.4971517
-0.1650492744
0.04259190679
0.2169860461
0.2034802903
39.35208123
-0.1612383285
0.07711311322
0.1524637567
0.0767296716
39.28820341
-0.1623052472
0.1075669334
0.1096327364
0.008980330598
39.25715701
-0.1619151799
0.13515311
0.07532193693
-0.01751667653
39.23946163
-0.163064673
0.1545554584
0.05307755329
-0.0268759785
39.22610718
-0.1663436513
0.1681957086
0.0425447883
-0.03104526011
39.2140252
-0.1705206332
0.1764682968
0.03888744435
-0.03275619375
39.20435261
-0.1753603668
0.1824460955
0.03751182503
-0.03492857411
39.19471139
-0.1777118529
0.182972534
0.03809337992
-0.03371694171
39.19924358
-0.167795688
0.1687726139
0.03366827656
-0.03918000621
39.04680241
-0.01114294311
0.1054800441
0.06491936186
-0.006815326122
38.09087542
0.7525482927
0.3312025315
-0.03280421414
-0.09502076796
1.129280851
0.9374855553
40.35453126
-2.156696283
-2.173724988
44.83720813
-0.2640620897
-2.108919361
-47.99020014
4.251544055
43.17188894
0.2840776061
1.567642103
-1.084634191
43.06635288
0.02787351799
0.09686489284
-0.1605102945
43.08244228
0.03482445395
0.06611168877
-0.09854257639
43.10481586
0.0401453481
0.05226864091
-0.08141681773
43.12078976
0.04233507852
0.05277865264
-0.07794611912
43.13388716
0.04282637721
0.05387328395
-0.07786311747
43.14561953
0.04226109462
0.0549042769
-0.07826504051
43.15643078
0.04096487324
0.05580303591
-0.07847036487
43.16658372
0.03921433282
0.05651782832
-0.07838304199
43.17628938
0.03710436019
0.05711813168
-0.07805234773
43.1856684
0.03463006347
0.05765502039
-0.07745694762
43.19485183
0.03175831604
0.05815796498
-0.07666135842
43.20403771
0.02846758525
0.05869510226
-0.07580529298
43.21342693
0.02475824914
0.05934840777
-0.0749885403
43.22309766
0.02066517659
0.06018652691
-0.07414997629
43.23320838
0.01622407263
0.06103377773
-0.07323437239
43.243497
0.01146743763
0.0620430099
-0.07213171311
43.25374782
0.006536304691
0.06332741986
-0.071124126
43.26375504
0.001608199661
0.0648324839
-0.07019350102
43.27322762
-0.003435605027
0.0672328911
-0.06966842317
43.28196276
-0.008311887595
0.06999057714
-0.06934189561
43.28915879
-0.01318353054
0.07349915013
-0.06901486841
43.29364405
-0.01792183627
0.0777596977
-0.06849995974
43.2945098
-0.0221848883
0.0824069665
-0.06812591205
43.29012115
-0.02595282225
0.08915080405
-0.06815201473
43.2809355
-0.02889536451
0.09505706075
-0.06816174503
43.26547129
-0.03148786543
0.104586154
-0.07028933088
43.24614257
-0.03416694063
0.1122614634
-0.07229613805
43.22349021
-0.03868357577
0.1228328439
-0.07522977032
43.20440377
-0.04682062684
0.1278418509
-0.07455749623
43.19219329
-0.06028909828
0.1345718834
-0.06931442758
43.19754554
-0.07689235613
0.134839849
-0.06280916783
43.21644329
-0.0986089225
0.121063189
-0.04789782236
43.22515304
-0.1190209857
0.07338540102
-0.02021082849
43.17634674
-0.1383030979
0.02627158903
0.07724625667
42.02139985
-0.1585307479
0.01316730723
1.173371367
41.49868881
-0.1704557604
0.01011196435
0.5180046605
41.30598338
-0.1861949358
0.04125529108
0.1764048664
41.24914787
-0.2031395869
0.06649217592
0.03117587755
41.23214337
-0.2180709842
0.09006940272
-0.01691134759
41.22367278
-0.2311691742
0.1073913137
-0.03081820116
41.21542835
-0.240733467
0.1187654237
-0.03613333939
41.20657179
-0.2479454922
0.125472051
-0.03919264889
41.19753282
-0.2533811547
0.1292731619
-0.04221587666
41.18783505
-0.2569678054
0.1315561746
-0.04260503737
41.211142
-0.2574561124
0.1146081427
-0.04825750825
41.39763362
-0.2662191165
0.08450580737
-0.01592359218
44.25155545
-0.550896668
-1.410219207
-0.1402588794
0.02056658427
2.295681753
47.22733164
-4.162743634
47.43219937
-0.009829462467
-2.452788145
-49.32565091
4.092007248
45.07195411
0.03123158695
4.156023508
-1.542932069
48.84488733
-0.1474151664
-3.822216399
0.2245720675
48.81241439
-0.02617910913
-0.05186054998
0.1453372559
48.78451466
0.02750284147
-0.003525577594
0.04406804004
48.78268458
0.03455624086
0.02965908607
-0.02004992509
48.79371389
0.0347948211
0.04656748712
-0.04956497563
48.80871076
0.03353088574
0.05389850607
-0.06016489891
48.82410733
0.03107217734
0.05692345431
-0.06242703297
48.83919649
0.02790040795
0.05841307113
-0.06218800947
48.85390281
0.02424980018
0.05950947877
-0.06136090196
48.86831732
0.02010696531
0.06056395498
-0.06045503098
48.88264898
0.01530770224
0.06171021409
-0.05959087619
48.89704266
0.009765950355
0.06310810695
-0.05879976869
48.9117589
0.003423520055
0.06471648514
-0.05809757094
48.92672242
-0.003382483454
0.06659921524
-0.05751465285
48.94206106
-0.01059938654
0.06857014015
-0.05708487477
48.95771205
-0.01854981321
0.07112634293
-0.05675964597
48.97374481
-0.02697765984
0.0739341899
-0.0564524954
48.98969446
-0.035644176
0.07748613373
-0.05618292402
49.00518629
-0.04430026456
0.08153365726
-0.05616028377
49.01987169
-0.05276759275
0.08623363993
-0.0564628388
49.03294783
-0.06108725611
0.0917598836
-0.05693182022
49.04295344
-0.06876924896
0.09810634336
-0.05726420593
49.04896508
-0.07547386012
0.1050956524
-0.057818094
49.05011758
-0.08163187055
0.1131670713
-0.05864050557
49.04479207
-0.08655471627
0.1228589358
-0.05987421569
49.03356201
-0.0906445446
0.1320449237
-0.06165847846
49.01728489
-0.09565536562
0.1424539178
-0.06468855588
48.99784898
-0.1031690989
0.1506389456
-0.06671767937
48.97854944
-0.1146176367
0.1538636338
-0.06676738043
48.96175401
-0.130997944
0.1488153951
-0.06131199041
48.95364738
-0.1510563514
0.1365064566
-0.05423724031
48.95758991
-0.1765077164
0.1133632093
-0.03940844211
48.97485291
-0.2021926507
0.08290160423
-0.01699513438
48.97612614
-0.233384692
0.01833948304
0.07546700988
47.96778146
-0.2578170539
-0.09599953736
1.203629086
47.54964862
-0.2814413606
-0.004759694414
0.5338764956
47.40686191
-0.3104672122
0.07924339442
0.1878134398
47.37105771
-0.3391115115
0.1295663119
0.04220735572
47.36255237
-0.3621727666
0.1585760441
-0.005971456643
47.35630398
-0.3839485931
0.1796654349
-0.0206403982
47.34743426
-0.399587448
0.1943612768
-0.02664033224
47.33790319
-0.4134628331
0.2052318529
-0.0301865095
47.32980369
-0.4240186314
0.2129262489
-0.03419253518
47.31108307
-0.4277387824
0.2240957719
-0.03460799818
47.26079379
-0.3777340317
0.21741528
-0.04685230275
42.4752021
-0.2184644804
4.747224759
-0.009391688703
46.47742719
-0.3817340392
-4.051860676
-0.1195278461
-0.3358940588
2.626186114
48.48221504
-4.274513555
47.85962977
0.004184456679
-2.52170277
-49.37251638
4.020575671
45.07465618
0.009540639355
4.226820755
-1.420156061
51.96635452
0.00905195727
-7.809909119
0.7617438375
52.37859433
0.01469385533
-0.9655208183
0.5124082269
52.26478369
0.0261292445
-0.1029374397
0.2181218639
52.23912553
0.03030057765
-0.005632854599
0.03554688323
52.24261264
0.02908299578
0.0379632296
-0.03573829814
52.25587351
0.02684809634
0.05334272801
-0.05992058636
52.27105951
0.02368875758
0.05977116877
-0.06757352133
52.28570878
0.01959857532
0.06277038021
-0.06911757628
52.2998165
0.01469585571
0.06445650259
-0.06901002697
52.31367133
0.009060703229
0.06579039576
-0.06859868076
52.32737907
0.002661632968
0.06704008425
-0.06810147492
52.34148681
-0.005093307778
0.0682141597
-0.06746233274
52.35615103
-0.01387450908
0.06950013304
-0.06686602382
52.37154015
-0.02343595468
0.07099604291
-0.06633137069
52.38785448
-0.0338500406
0.07273550188
-0.06579889003
52.40500691
-0.04506682109
0.07469277864
-0.06532787892
52.42294375
-0.05689647048
0.07703783356
-0.06505558791
52.44142562
-0.06908905807
0.07986200225
-0.06489866152
52.4599374
-0.08132584748
0.08330298395
-0.06478889642
52.47796705
-0.09316881172
0.08732664513
-0.06495476317
52.49447607
-0.1043979855
0.09219684031
-0.06539493619
52.50841261
-0.1148469325
0.09805698451
-0.06591569213
52.51848156
-0.123414948
0.1045012128
-0.0666291469
52.52287957
-0.1312020953
0.112676957
-0.06750489845
52.52036252
-0.1366412296
0.1213089407
-0.06870576422
52.5112506
-0.1415710178
0.1304585678
-0.07042059183
52.49577192
-0.1468086736
0.1398227334
-0.07319139215
52.47535003
-0.1545020758
0.1467211815
-0.07496644534
52.45347307
-0.1654175826
0.146920306
-0.07424431248
52.43088939
-0.1776812762
0.13776609
-0.06850027182
52.419071
-0.1998323656
0.1185332937
-0.05794048994
52.41888477
-0.2228225618
0.08674127426
-0.04024179729
52.42391423
-0.2478955105
0.03863937171
0.002032376914
52.3956967
-0.278540039
-0.05008875567
0.1234600409
52.23967358
-0.305674273
-0.2187972973
0.4226758567
52.15186156
-0.3357166424
-0.1218707227
0.2639563918
52.12637387
-0.37011361
-0.021542713
0.1066743977
52.13063131
-0.4045839351
0.03172854313
0.02948430058
52.14278715
-0.4356664191
0.05858878394
0.002746181375
52.1485364
-0.4591180649
0.07584894982
-0.006431278964
52.14986512
-0.477411309
0.0875794251
-0.01108717952
52.14965727
-0.4950231522
0.09643608534
-0.01467087434
52.14770909
-0.5071929262
0.1035384596
-0.01841900801
52.1497925
-0.5177851225
0.1065163778
-0.01855657819
51.41256218
-0.5131771578
0.903768951
-0.03109946636
42.48544894
-0.4674225749
9.16961536
0.006452525269
46.80470551
-0.4231262158
-4.169931866
-0.1079339799
-0.405689564
2.655782895
48.50629597
-4.287578071
47.90798222
0.003372265127
-2.523525643
-49.38685616
4.003212001
45.0690365
0.006948686278
4.229545758
-1.388007923
51.98396954
0.01282073105
-8.007512486
1.088810854
53.06976713
0.01703366359
-1.823420355
0.7352831192
53.84503089
0.02098328547
-1.092716782
0.3225991633
53.81384503
0.02304305193
-0.03453726517
0.07298084962
53.81671733
0.02163403406
0.02922953042
-0.02465266305
53.82944981
0.01844926372
0.04990065095
-0.05423407205
53.8455967
0.01425536121
0.05673186425
-0.06344512861
53.86193382
0.009219941456
0.05917522774
-0.06513344924
53.87812191
0.003109938269
0.06011618468
-0.06471809225
53.89426846
-0.003762257404
0.06081619957
-0.0641394857
53.91048772
-0.01158884514
0.06151896128
-0.06348743184
53.9267958
-0.02088488309
0.06235104473
-0.06286721998
53.94339066
-0.03154587428
0.06332146664
-0.06224463076
53.96060834
-0.0435276456
0.06451296981
-0.06163862183
53.97864382
-0.05678706405
0.06602658607
-0.06112472034
53.99766124
-0.07123067486
0.06785973427
-0.06071299805
54.01770785
-0.08665095421
0.07010039171
-0.06039224021
54.03866954
-0.1027235966
0.0728355537
-0.06016240461
54.06018185
-0.1189710108
0.07613924361
-0.06000613183
54.08171197
-0.1347988346
0.08026529774
-0.06016513822
54.10241713
-0.1495188555
0.08513626277
-0.06072042089
54.12056913
-0.1631392894
0.09124899175
-0.06110859711
54.13478563
-0.1736270472
0.09782404342
-0.06182861532
54.1438539
-0.1834462085
0.1060192847
-0.0628437413
54.14495613
-0.1889184597
0.1152374002
-0.06406289559
54.13892277
-0.1941573657
0.1243431514
-0.06572411884
54.12488761
-0.1978900528
0.1335665925
-0.06845022671
54.10612071
-0.2035949536
0.1383839783
-0.0705250187
54.0846493
-0.2128319672
0.1377767078
-0.0688925147
54.06868805
-0.2254894699
0.1273123701
-0.06354459258
54.0578742
-0.2415717531
0.105345737
-0.05279455005
54.06101243
-0.2603458627
0.07144393394
-0.03706073557
54.07829288
-0.282297342
0.02575193295
-0.008632384372
54.094412
-0.3093050665
-0.03900676866
0.05364992939
54.09173497
-0.3363864178
-0.1052139402
0.1386010224
54.09843664
-0.3672823738
-0.07824565206
0.1031062282
54.11571305
-0.4023801865
-0.03601835092
0.05100621674
54.13481193
-0.4393542061
-0.007455370401
0.02312229119
54.14714135
-0.4722118778
0.01178126535
0.01243152181
54.15636153
-0.5039152145
0.02883240792
0.006740571616
54.15987027
-0.5269333249
0.04376356918
0.002245451451
54.16064137
-0.5483014449
0.0544884745
-0.001985499735
54.16263348
-0.5679603376
0.06565880999
-0.006888677028
53.21149733
-0.5736139677
1.013161569
-0.0062002084
51.63410425
-0.5627425582
1.644877155
-0.01792251502
42.4902621
-0.5103410437
9.164589948
0.02216750146
46.81930757
-0.4514918309
-4.206297316
-0.09438414515
-0.4314919742
2.611452548
48.52307934
-4.289422117
47.91551779
0.001988264292
-2.523561651
-49.3900904
3.999518509
45.07024254
0.004196240315
4.228257861
-1.380229987
51.92438241
0.008090397931
-8.085486169
1.236076813
52.99657644
0.01068957995
-1.898902328
0.833052545
54.69553892
0.01292495077
-2.057184677
0.366280708
55.09284942
0.0143128177
-0.4745101228
0.08593006146
55.09944178
0.014031343
0.02315818135
-0.022147637
55.11203044
0.01084622565
0.04876732117
-0.05375270266
55.1271819
0.006002512338
0.0569150053
-0.06381334677
55.1416773
0.0005307350724
0.06009876727
-0.06590466974
55.1555771
-0.006793214536
0.06165120335
-0.0656475235
55.16926629
-0.01509098405
0.06270172116
-0.06506182202
55.18322314
-0.02476535541
0.06368554492
-0.06446549714
55.19753348
-0.03603641221
0.06468234885
-0.06384074072
55.21247253
-0.04901607295
0.065755892
-0.06322432164
55.2283229
-0.06372751177
0.06700469703
-0.06265477694
55.24532915
-0.08015087584
0.06851448641
-0.06215651526
55.26371583
-0.0981810921
0.07030379673
-0.06173968063
55.28366139
-0.1175868641
0.07239927276
-0.06140855671
55.30516751
-0.1379744316
0.07491306392
-0.06116799111
55.32798692
-0.1587571836
0.07794854619
-0.06098143709
55.3516176
-0.1791426878
0.08175493834
-0.06104145272
55.37535569
-0.198176315
0.086489813
-0.06157026142
55.39716086
-0.2154430807
0.09249086746
-0.06199219993
55.41553177
-0.2283250158
0.09903219114
-0.06270530021
55.42773215
-0.2393335782
0.1074446689
-0.06375801286
55.43157715
-0.2446060561
0.1164935618
-0.06465150347
55.42655926
-0.2479513708
0.1258813943
-0.06706986068
55.51391636
-0.2495919756
0.03356679693
-0.06922275831
55.4936778
-0.2524086881
0.1402347259
-0.07118353485
55.25094806
-0.255403461
0.3552394194
-0.06994029263
55.08738039
-0.2601980552
0.2614017013
-0.06312770571
55.06244707
-0.2689862753
0.1048245911
-0.05247922826
55.06286925
-0.2813046351
0.05829862729
-0.03776416208
55.07406255
-0.2963619488
0.02163199682
-0.01876387578
55.11052375
-0.3155601295
-0.03932599426
0.009117291342
55.15661417
-0.3375490858
-0.08480484497
0.03987316309
55.19690338
-0.3637109579
-0.08254612127
0.03868185238
55.22720235
-0.3952204514
-0.06734378274
0.02987892969
55.25281662
-0.4305840305
-0.06062391612
0.02623548711
55.41736631
-0.4663774773
-0.1948532538
0.0244640139
55.65997977
-0.5067359946
-0.2606650579
0.02086657507
55.66869693
-0.5367287436
-0.01539016394
0.01646214271
55.57491227
-0.5580986271
0.09136511085
0.01220965369
55.14508968
-0.5786250743
0.4318849569
0.008595768824
53.23373312
-0.5782963028
1.906884798
0.009148965582
51.6502629
-0.5671799424
1.591050524
-0.003146988958
42.4990731
-0.5156219809
9.119226927
0.03724036629
46.83205733
-0.4551402051
-4.247616676
-0.08172081304
-0.4344519579
2.577147121
48.54726431
-4.289394269
47.91564016
0.001403814021
-2.523345772
-49.39050646
3.998796798
45.06744668
0.00291568585
4.228268646
-1.378794445
51.89500071
0.005362916791
-8.10861859
1.283792248
52.95605551
0.00680974261
-1.920780234
0.8636054403
54.65746871
0.007498307799
-2.074887268
0.3789008984
55.48042898
0.007581960228
-0.9056253774
0.08939617576
55.87877423
0.006781794663
-0.3693794414
-0.02171602497
55.89148977
0.00367713406
0.04766476823
-0.05321094787
55.90631432
-0.001782936237
0.05600212526
-0.06304093107
55.92145223
-0.008288736476
0.05876756421
-0.06508567195
55.93583895
-0.01627148404
0.05984297612
-0.06475106786
55.94986218
-0.02562912032
0.06061129995
-0.06409598829
55.96377327
-0.03663474907
0.06136531906
-0.06340658534
55.97781428
-0.04955526048
0.06214264871
-0.06266434953
55.9923075
-0.06458850385
0.06302279283
-0.06194310394
56.0076285
-0.08185394155
0.06407031844
-0.06126442528
56.02417735
-0.1013909143
0.06535268818
-0.06066104542
56.04232524
-0.1231416628
0.06695280099
-0.06013970129
56.0624306
-0.1468812969
0.06888806892
-0.05969858893
56.08469871
-0.1721449038
0.07127305438
-0.05937028339
56.10916007
-0.1981995154
0.07408333341
-0.05910197329
56.13547815
-0.2240385459
0.07759834956
-0.05902024093
56.16294095
-0.2482687494
0.08201262941
-0.05938276807
56.18973229
-0.2699918978
0.08755653945
-0.05979901605
56.21424523
-0.286558737
0.09401738398
-0.06029672895
56.23262509
-0.298655347
0.1021909455
-0.06124935649
56.24204441
-0.3031578489
0.1116214986
-0.06248947595
56.24069636
-0.3035989937
0.1217706161
-0.06477563176
56.11994311
-0.2985818588
0.2369037543
-0.06716135094
56.0112038
-0.2939986421
0.2188537813
-0.06852605869
55.54523199
-0.288603236
0.5663747033
-0.06720532134
55.24125347
-0.2862164304
0.3900696249
-0.0600753606
55.21599879
-0.2866692915
0.09140836992
-0.0484727812
55.20749512
-0.2889129082
0.05085207302
-0.03474282897
55.20808639
-0.292457529
0.01426971126
-0.01876833887
55.24650265
-0.2989221769
-0.0550797483
2.236743282e-05
55.30641383
-0.309324089
-0.1038595197
0.01571915512
55.35697698
-0.3277314948
-0.1107310571
0.02418270147
55.38959506
-0.3558728166
-0.1012844613
0.02931427817
55.41577191
-0.3899147625
-0.1004167073
0.03356426746
55.7246847
-0.4265607389
-0.3835076565
0.03477253449
56.19251022
-0.4702834976
-0.5359785084
0.03169388693
56.29339397
-0.5051350433
-0.1599167529
0.02743229836
56.01003018
-0.5280758498
0.2296036168
0.02372956399
55.14402482
-0.5529910571
0.8211953046
0.01916852774
53.23573557
-0.5531797097
1.862783677
0.0203834405
51.65214287
-0.5418481424
1.550749739
0.007506931522
42.50432556
-0.4927792877
9.075375786
0.04959481263
46.8362965
-0.4346711693
-4.282693024
-0.06974818677
-0.4161067826
2.540595552
48.56508518
-4.287729782
47.91596362
0.000634615209
-2.523458975
-49.39044719
3.998712032
45.0680273
0.001408581031
4.22795112
-1.378507494
51.89033414
0.002590354047
-8.115509644
1.295975573
52.95015015
0.003042496933
-1.92704655
0.8709979722
54.65381053
0.002721191675
-2.080877947
0.3819948734
55.4786321
0.001953319388
-0.9093935716
0.09020086591
56.27324552
-5.414245578e-06
-0.7662876961
-0.02153826265
56.52145227
-0.002835483906
-0.1885797815
-0.05311407179
56.53497175
-0.007793028273
0.055428892
-0.06293796966
56.54801747
-0.0148688389
0.0586435179
-0.06510880693
56.56027813
-0.02372922556
0.06001788925
-0.06482044113
56.57198869
-0.03417833037
0.06106873645
-0.06422968126
56.58341519
-0.04650275886
0.06204242901
-0.06360048199
56.59488732
-0.06108345612
0.06296719502
-0.06291067142
56.60679246
-0.07819507203
0.06392605528
-0.06222416568
56.61957258
-0.09804983943
0.064988315
-0.06157207484
56.63374264
-0.1207921078
0.06620478633
-0.06097320921
56.64986639
-0.146445319
0.06762533422
-0.06044500082
56.66853241
-0.1748614473
0.06929552246
-0.05998097292
56.69024641
-0.2055392789
0.07126761501
-0.05958681954
56.71531888
-0.2376604506
0.07364618173
-0.05925733534
56.74368849
-0.2699740022
0.07666422419
-0.05909804666
56.77490586
-0.3006918388
0.08057078331
-0.05936486092
56.80718383
-0.3281745914
0.08562417095
-0.05971938497
56.83819323
-0.3490814996
0.09163672321
-0.06012349625
56.86380867
-0.3631161152
0.09975333389
-0.06090827646
56.87968229
-0.36621874
0.1096393513
-0.06245246507
56.64263796
-0.3603441961
0.35840757
-0.0646186973
56.21144062
-0.3463176109
0.5462616522
-0.06732955815
56.01482588
-0.3337097948
0.3044783464
-0.06815419288
55.54091512
-0.3173789473
0.5696315149
-0.06694748295
55.23451367
-0.3072152108
0.3872632761
-0.05986530632
55.22097258
-0.3004526699
0.07494461309
-0.0476230989
55.21032263
-0.2947272302
0.05008980384
-0.03362793959
55.21875786
-0.2880691502
0.005484131468
-0.01831121133
55.25687644
-0.280524118
-0.05506537349
-0.001454522799
55.30508819
-0.2757262007
-0.09222154348
0.01040743177
55.34388143
-0.2810400865
-0.1055748845
0.02008615231
55.3700284
-0.3002190445
-0.1124040746
0.03059715549
55.39283155
-0.3293641786
-0.1225639984
0.03920438608
55.70113121
-0.3654907746
-0.4120066907
0.04263105983
56.17010099
-0.4109101842
-0.5687087757
0.04035964375
56.36646872
-0.4498858953
-0.2882302691
0.03660647906
56.10076043
-0.4773321278
0.1821186183
0.0328388922
55.13794401
-0.5047545964
0.8862829021
0.0282896416
53.23496744
-0.5110372276
1.832013996
0.0288145586
51.65921615
-0.502173329
1.520291176
0.01578128933
42.51614993
-0.4600962401
9.053090441
0.05728868833
46.85061472
-0.4065463172
-4.298207529
-0.06438319327
-0.387822103
2.526913116
48.58443381
-4.289017156
47.91530498
0.00028486522
-2.523387401
-49.39029466
3.998727164
45.06663108
0.0006546564206
4.227916082
-1.37848807
51.88621425
0.001076350008
-8.115976427
1.297907497
52.94374625
0.0008665085052
-1.927364964
0.872009126
54.64578836
-0.0003752185675
-2.081319507
0.3823739988
55.46892043
-0.001821936672
-0.9095977369
0.09024114303
56.26261068
-0.005066957401
-0.7672294218
-0.02139902588
56.74585292
-0.008307862572
-0.4245058896
-0.0532636897
56.97466221
-0.01358949838
-0.1598956714
-0.06311684419
56.98721389
-0.02064290425
0.05829161037
-0.06506889408
56.99845586
-0.02990277999
0.05962967611
-0.06469772564
57.00882709
-0.04101538838
0.0605220247
-0.06405579436
57.018633
-0.05427965962
0.06135374396
-0.06338232217
57.02817107
-0.0701413669
0.0621676437
-0.06264735569
57.03786943
-0.08898260125
0.06300120059
-0.0619115728
57.04825462
-0.1111260279
0.06389778404
-0.06120632503
57.05998074
-0.1368662956
0.06488792962
-0.0605394081
57.07382781
-0.1663632685
0.06598123334
-0.05990988532
57.09070745
-0.1995976281
0.06719655453
-0.0593395522
57.11151479
-0.2360973118
0.06854301497
-0.05879186623
57.13712708
-0.2751051343
0.07009138743
-0.05825857465
57.16829304
-0.3153040097
0.07208056694
-0.05791615829
57.12277675
-0.3535721757
0.156256286
-0.05785942185
57.06338769
-0.3867017135
0.1757294728
-0.05781319559
57.06589778
-0.4122505871
0.1185230145
-0.05786408552
57.10141181
-0.4279594902
0.08764890455
-0.05831973968
57.12676191
-0.4299407723
0.09838545136
-0.06001386419
56.66019975
-0.4182451092
0.5870908669
-0.06262841688
56.23453646
-0.3944667046
0.5385759052
-0.06476445374
56.03903264
-0.3709183263
0.2987739157
-0.06606335483
55.56786955
-0.343596969
0.5623825676
-0.06500389062
55.26261443
-0.3236064357
0.3799631157
-0.05831938926
55.24669769
-0.3062562289
0.06787964464
-0.04616147055
55.23898148
-0.291698652
0.03663878355
-0.03195438572
55.23174051
-0.2763040463
0.0124004421
-0.01692817746
55.2611752
-0.2553306645
-0.05515904568
0.0005272544527
55.30064706
-0.2327025837
-0.09602148029
0.01352318207
55.33298279
-0.2209827524
-0.1193542785
0.02695625032
55.35551957
-0.2271015779
-0.1347250292
0.03906576901
55.37698438
-0.2492979666
-0.1502974133
0.0487599136
55.68621236
-0.2833672762
-0.4444148227
0.0530585196
56.15875629
-0.3279716212
-0.6065447474
0.05105598786
56.26718099
-0.3682511799
-0.2379603371
0.0478950743
56.1952563
-0.4004237213
-0.0493883908
0.04439742583
55.12920191
-0.4252157825
0.9466961765
0.03981216128
53.22920091
-0.4383635341
1.785039818
0.04228227519
51.64949616
-0.4287411304
1.476264233
0.03000461327
42.51342402
-0.3945724042
8.995832074
0.07471251022
46.8474305
-0.3484945413
-4.344973906
-0.04708530139
-0.3343189794
2.47597144
48.60101816
-4.283062477
47.91523917
-0.0001293195177
-2.523433631
-49.39014053
3.998749486
45.06666785
-0.0001271951768
4.227798216
-1.378444809
51.88626782
-0.0003673907061
-8.116438473
1.298282463
52.94382457
-0.00108519554
-1.927870736
0.8722658913
54.64559173
-0.002679914463
-2.082015439
0.3825531598
55.46832737
-0.004540077934
-0.9104527062
0.09043543466
56.26123297
-0.008362606869
-0.7684398509
-0.02116984855
56.74368319
-0.01185143088
-0.4258529667
-0.05305341218
57.18640881
-0.01773332828
-0.3753450884
-0.06323640519
57.19751874
-0.0244496345
0.05772200694
-0.06502489834
57.20655242
-0.03364925681
0.05936837098
-0.06465522556
57.21432522
-0.04504191907
0.06032411893
-0.06407000713
57.2212136
-0.05885682822
0.0611251731
-0.06343597631
57.22747005
-0.07555149412
0.06187835875
-0.06272425504
57.23352522
-0.09561768788
0.0625764364
-0.06199607723
57.23999924
-0.1195346079
0.06321713444
-0.06128214279
57.24768169
-0.1477621602
0.06380079432
-0.06058693645
57.25757797
-0.1806591472
0.06427283606
-0.05987278942
57.27099949
-0.2184242572
0.06461887822
-0.05921329792
57.28964744
-0.2609792035
0.06474267889
-0.05850828952
57.23344701
-0.3072220001
0.1461145958
-0.05779689356
57.16805058
-0.355064865
0.1621843396
-0.05702671075
57.04944486
-0.4018195728
0.2233140376
-0.05646070402
56.85582776
-0.442834274
0.3058044596
-0.05605470924
56.8118066
-0.4743124696
0.1613860124
-0.0553030442
56.86088973
-0.493111016
0.07138537954
-0.05531725425
56.89927545
-0.4936637986
0.08254493095
-0.05720765281
56.68016061
-0.4747512804
0.3360125746
-0.060392162
56.25980006
-0.4404876394
0.5297003929
-0.06331927454
56.06418943
-0.4022818821
0.2919682807
-0.06499582214
55.59639075
-0.3650213417
0.5530889573
-0.063867901
55.2951961
-0.338160261
0.3722740019
-0.05652789968
55.29300607
-0.3179318716
0.05853066489
-0.04466754898
55.30784067
-0.2959606213
0.01845102689
-0.02902620772
55.305107
-0.2658378894
0.005011188295
-0.01274801301
55.32931061
-0.217768255
-0.06325272515
0.001483768405
55.3365099
-0.1611809311
-0.09043727278
0.01171230135
55.3391656
-0.1286315886
-0.1203022617
0.02529320963
55.34009111
-0.1213020849
-0.1512426883
0.04451136133
55.35170112
-0.141812521
-0.1731992686
0.0540983881
55.62725361
-0.1749573511
-0.4430020362
0.05903370386
55.87459665
-0.2195830441
-0.4139938378
0.05825803308
55.89690422
-0.2633937997
-0.1831961836
0.05602542381
55.92422415
-0.3052830954
-0.174716748
0.05224992898
55.1202821
-0.3345707214
0.6656535497
0.04763783709
53.23237026
-0.363089184
1.765468502
0.04716430783
51.66294819
-0.3598887543
1.46684888
0.03371765946
42.53103911
-0.3392462581
9.000958551
0.07562059483
46.86752042
-0.2964641421
-4.340079306
-0.04843333259
-0.281320711
2.482153311
48.62018963
-4.287821207
47.91478224
-0.0003116409566
-2.523394663
-49.38997095
3.998766062
45.06581873
-0.0004882254085
4.227770522
-1.378445774
51.8845745
-0.0011842243
-8.116132893
1.298194227
52.9410199
-0.002139975657
-1.927565864
0.8721754195
54.64168582
-0.004064159221
-2.081808103
0.382526631
55.46302692
-0.00609055902
-0.9102064083
0.09041602162
56.25449665
-0.01030806796
-0.7684053414
-0.02111866891
56.73531498
-0.01378137333
-0.4258639472
-0.05302416285
57.17609428
-0.01990513714
-0.3753471539
-0.06326004122
57.18541146
-0.02643824671
0.05768138639
-0.06500963952
57.19240598
-0.03540642439
0.05935199825
-0.06458900596
57.1977623
-0.04670449021
0.06027301235
-0.06396637807
57.20180837
-0.0605997527
0.06099761231
-0.06330033864
57.20473925
-0.07758163033
0.06164614801
-0.06254645642
57.20694477
-0.09824264145
0.06218303236
-0.06176314972
57.20907055
-0.1232416643
0.06255451664
-0.06097278089
57.21202707
-0.1532433141
0.06269149255
-0.06016638774
57.21705168
-0.188828471
0.06243539873
-0.05929019795
57.20028455
-0.2306160246
0.08743234043
-0.05847293871
57.12854051
-0.2787028581
0.1468785756
-0.05741038539
56.92595612
-0.3316508004
0.2832379978
-0.05622435936
56.71867333
-0.3874334839
0.2940605504
-0.05440875254
56.62966189
-0.4443284793