/*--------------------------------*- C++ -*----------------------------------*\
| =========                 |                                                 |
| \\      /  F ield         | OpenFOAM: The Open Source CFD Toolbox           |
|  \\    /   O peration     | Version:  2.2.1                                 |
|   \\  /    A nd           | Web:      www.OpenFOAM.org                      |
|    \\/     M anipulation  |                                                 |
\*---------------------------------------------------------------------------*/
FoamFile
{
    version     2.0;
    format      ascii;
    class       volVectorField;
    location    "5";
    object      U;
}
// * * * * * * * * * * * * * * * * * * * * * * * * * * * * * * * * * * * * * //

dimensions      [0 1 -1 0 0 0 0];

internalField   nonuniform List<vector> 
86889
(
(15.03496343 0.006001885081 0.004878455476)
(15.0534421 0.0047631018 0.006238230032)
(15.05654336 0.0019682001 0.006449190867)
(15.06185815 0.001679801783 0.004624155495)
(15.06913395 0.0003841584674 0.002490683026)
(15.07646926 -0.00165551277 0.000530482314)
(15.08196469 -0.00316765143 -0.0009298014965)
(15.08653457 -0.004166054949 -0.002044140878)
(15.09092373 -0.004904308063 -0.002946243822)
(15.09499373 -0.005417492072 -0.003607227167)
(15.0988437 -0.005734862542 -0.004068239761)
(15.10247101 -0.005909930322 -0.00437547383)
(15.1060748 -0.006017362221 -0.004568866566)
(15.10952792 -0.006096911639 -0.004656821595)
(15.11291892 -0.006154475352 -0.004620898013)
(15.11632151 -0.006186482895 -0.004474469675)
(15.1197912 -0.006225261809 -0.004278593879)
(15.12328181 -0.006321061686 -0.004039647405)
(15.12674394 -0.006482913683 -0.003748899935)
(15.13014414 -0.006674477068 -0.003330485441)
(15.13338382 -0.006839462598 -0.00276626156)
(15.13655933 -0.006947874724 -0.002072933048)
(15.13940373 -0.007031851371 -0.001371213862)
(15.14200766 -0.007193456258 -0.0005806838181)
(15.14357806 -0.007388346335 0.0003062197413)
(15.14390814 -0.007514013596 0.001221907899)
(15.14293279 -0.00753188945 0.002526085615)
(15.14033689 -0.007426921392 0.004037111562)
(15.13605653 -0.007049774501 0.006014425953)
(15.13095508 -0.006842880839 0.007863942253)
(15.12562067 -0.00729523778 0.008976902731)
(15.11902069 -0.008514538556 0.009521872542)
(15.11056465 -0.01113075885 0.009118834692)
(15.09978552 -0.01394580862 0.009849673772)
(15.09353367 -0.01805288647 0.009747131545)
(15.09292668 -0.01932052469 0.00772084028)
(15.09927536 -0.02719481516 0.01037511602)
(15.10659749 -0.02891207563 0.01270312014)
(15.11021708 -0.02831619019 0.01482218379)
(15.11103956 -0.02807654625 0.01674107648)
(15.10985597 -0.02823282472 0.01949819656)
(15.10810395 -0.02847416892 0.02331354248)
(15.10614896 -0.02874616246 0.02769947607)
(15.10473968 -0.02922090529 0.03124805173)
(15.10217712 -0.03015095493 0.0348063351)
(15.10290218 -0.03092973982 0.03626815561)
(15.09494294 -0.03177106343 0.03876243444)
(15.11375356 -0.03549965574 0.03689521074)
(15.02127087 -0.03979285302 0.02968844302)
(15.29659714 -0.1114561485 -0.04390869527)
(15.01777336 0.007421315099 0.005851386028)
(15.02840168 0.01088585374 0.005890968612)
(15.03535115 0.01375157183 0.005863345666)
(15.04238272 0.01790777521 0.005815369577)
(15.0489333 0.02111555216 0.005136258037)
(15.05470135 0.02285462085 0.004258880915)
(15.05955767 0.02361960055 0.003600296605)
(15.06372623 0.02380517212 0.003180793826)
(15.06754944 0.02361775606 0.00289590254)
(15.07113193 0.02317763318 0.002704438594)
(15.0745615 0.0225362223 0.002604411416)
(15.07784905 0.02173341678 0.002575111269)
(15.08104852 0.02080401093 0.002600964123)
(15.08423601 0.019771695 0.002688943407)
(15.08748364 0.01863868441 0.00285403229)
(15.09086827 0.0174128868 0.003087144295)
(15.09445083 0.01609752724 0.003344516139)
(15.09824829 0.01469724436 0.003628274989)
(15.10221645 0.01324392433 0.003934430691)
(15.1063028 0.01179212811 0.00432503257)
(15.11046556 0.01038439886 0.004822822246)
(15.11462252 0.00901639172 0.00542555061)
(15.11882547 0.007589998597 0.00610641109)
(15.12258774 0.006188330799 0.006784913003)
(15.125867 0.004768894269 0.00766603029)
(15.12787908 0.003656604475 0.008678671859)
(15.12873721 0.002822965266 0.009896010772)
(15.12829912 0.002117426552 0.01130229378)
(15.12649379 0.001469699867 0.01312812285)
(15.12361351 0.0003658917475 0.01451312668)
(15.12043446 -0.002079442268 0.01516329442)
(15.11719146 -0.006367850593 0.01455880677)
(15.1143999 -0.01212790111 0.01330897794)
(15.11150252 -0.01958449321 0.01127483972)
(15.11245516 -0.0264149718 0.01012863612)
(15.10693564 -0.03172001232 0.003614324521)
(15.12996171 -0.0408823431 0.004963593503)
(15.14155158 -0.04545708707 0.007944591335)
(15.14602711 -0.05074879679 0.01129208313)
(15.14679018 -0.0566740796 0.01383745869)
(15.14690054 -0.06215149004 0.01638198618)
(15.14736133 -0.06668180096 0.01987697852)
(15.14788319 -0.06998820798 0.02345771846)
(15.14823061 -0.07228637095 0.02636176144)
(15.14734436 -0.07393627876 0.02869661208)
(15.14776974 -0.07478209039 0.03034997787)
(15.14161821 -0.07504215913 0.0319003188)
(15.15520106 -0.0752946179 0.03274794283)
(15.09680076 -0.08373125959 0.03153238789)
(15.2341718 -0.06681668894 -0.02043991749)
(15.01641865 0.003324008922 0.006041695542)
(15.02265186 0.004867213649 0.007287796444)
(15.02746828 0.005895173268 0.01127976755)
(15.03395414 0.006493510955 0.00850138775)
(15.04073603 0.006791479432 0.004450078706)
(15.04678505 0.006429696106 0.002519939897)
(15.05158746 0.005994185168 0.00271671021)
(15.0563314 0.00538997674 0.003183675546)
(15.06110125 0.004630945381 0.003271381014)
(15.06584323 0.003823918664 0.003162976829)
(15.07043493 0.002990089954 0.003039662932)
(15.07487034 0.00207313829 0.002961439676)
(15.07927252 0.001010301349 0.002933575047)
(15.08368472 -0.0002424916847 0.002965566479)
(15.08817667 -0.001690153269 0.003066861103)
(15.09280225 -0.003323082098 0.003228717673)
(15.09758511 -0.005129118357 0.003436708313)
(15.10254333 -0.007087401375 0.003685578512)
(15.10770607 -0.009154588259 0.003985918232)
(15.1130717 -0.01126631371 0.004348771838)
(15.11858669 -0.01336492883 0.004794600234)
(15.12412696 -0.01540175818 0.005334438471)
(15.12965335 -0.01743343856 0.006026816079)
(15.13489554 -0.01941385536 0.006780286288)
(15.1392112 -0.02107222444 0.007558647628)
(15.14291739 -0.02269152563 0.008627556158)
(15.14515111 -0.02400870217 0.009821408166)
(15.14591364 -0.02510268149 0.01103495343)
(15.14544477 -0.02632366509 0.01252794576)
(15.14395691 -0.02823219467 0.01363303633)
(15.14197967 -0.03131575087 0.0140798655)
(15.13973267 -0.03598069986 0.01319818742)
(15.13778789 -0.04154690123 0.01151752626)
(15.1356046 -0.04863675681 0.008504982715)
(15.13678264 -0.05495059502 0.006895010595)
(15.13181445 -0.06218507863 0.0002098796527)
(15.15251363 -0.06829395501 -0.001132264483)
(15.16269058 -0.07436512647 0.0005662137783)
(15.16682135 -0.08098830585 0.002657407538)
(15.16792355 -0.08787675673 0.004629354023)
(15.16886973 -0.09346420108 0.007100582599)
(15.17014385 -0.09848566911 0.01071241716)
(15.17090627 -0.1021316553 0.01398865939)
(15.17136405 -0.1050726444 0.01665406943)
(15.16998266 -0.1076334796 0.01876223965)
(15.17289109 -0.1096807461 0.01996466517)
(15.15785947 -0.1102504471 0.02096234833)
(15.19705543 -0.1125794954 0.01938758909)
(15.10123916 -0.1212627456 0.01617186739)
(15.22600699 -0.1264891885 -0.03570365094)
(15.01613611 0.002214239249 0.005755408033)
(15.02339129 0.004360802077 0.006235287277)
(15.02844621 0.007558595353 0.0102345765)
(15.03725617 0.01013075325 0.007669296027)
(15.04389165 0.01222287611 0.006411233874)
(15.04941474 0.0131717465 0.005155365574)
(15.05485768 0.01349413997 0.00452889039)
(15.05920067 0.01343987647 0.005431772671)
(15.06348602 0.01295371682 0.006465859928)
(15.06778822 0.01212064827 0.006946224917)
(15.07197647 0.01105169237 0.007139746108)
(15.07595484 0.009797350855 0.007280461249)
(15.07987823 0.008319452588 0.00741317886)
(15.08383949 0.006611842621 0.007497942574)
(15.08795503 0.00466120919 0.007587401712)
(15.0922972 0.002430207195 0.007718462169)
(15.09691906 -8.26483344e-05 0.007892984913)
(15.10185588 -0.00284849848 0.008123411981)
(15.10711338 -0.00580867785 0.008428252755)
(15.11267681 -0.008906706976 0.008807757712)
(15.11850268 -0.01206394471 0.009244446537)
(15.12445089 -0.01517861825 0.009775970731)
(15.13052431 -0.01823131654 0.01048646459)
(15.13621907 -0.02100394594 0.0112752754)
(15.14148249 -0.02350833197 0.01218828692)
(15.1458052 -0.0256847857 0.0133005389)
(15.14855451 -0.02737409292 0.01448505544)
(15.14974396 -0.02876795892 0.01573743667)
(15.14946461 -0.03045142207 0.01719597153)
(15.14763992 -0.03285062235 0.0182471101)
(15.14468962 -0.03622541548 0.018348798)
(15.14111412 -0.04084748887 0.01705907535)
(15.1375343 -0.04657218442 0.01412069662)
(15.13458869 -0.05359790145 0.009558442942)
(15.13367995 -0.06101784379 0.00433319833)
(15.13378914 -0.07090186009 -0.002461987113)
(15.13982074 -0.07840303605 -0.00640207777)
(15.14591857 -0.08743701037 -0.008382618556)
(15.15000214 -0.09766005177 -0.009753975295)
(15.15358689 -0.1081337954 -0.01021376734)
(15.15751852 -0.1161840301 -0.009170216484)
(15.1624523 -0.1237347841 -0.006630665341)
(15.16617693 -0.1289560694 -0.004341769226)
(15.16956476 -0.1340506618 -0.002033075969)
(15.17081397 -0.1375157533 -0.0004497969709)
(15.17495288 -0.1410118745 0.001293719764)
(15.16619102 -0.1439090477 0.002730999761)
(15.20131306 -0.146014964 0.001545442111)
(15.10517228 -0.1491060486 0.002223934326)
(15.23133833 -0.1488581141 -0.04736152259)
(15.0161866 0.001413902824 0.006017221498)
(15.02228882 0.002663963128 0.00620710032)
(15.02622884 0.004054864029 0.01044738619)
(15.03449485 0.004826724968 0.007794485032)
(15.03993777 0.005480189494 0.005768159172)
(15.04405119 0.005530199989 0.004688347133)
(15.04839343 0.004608051161 0.003516494867)
(15.05273941 0.003435714099 0.004068088412)
(15.05709278 0.002152810737 0.005028530678)
(15.06161346 0.000662453735 0.005409770208)
(15.06619564 -0.001085044609 0.005444590593)
(15.07072668 -0.003096925533 0.005462808809)
(15.07522235 -0.0053887979 0.005473688078)
(15.07974394 -0.007931873228 0.00551204227)
(15.08433892 -0.01072197699 0.005558706673)
(15.08907207 -0.01378008125 0.005622647362)
(15.09402989 -0.01711714204 0.005731397923)
(15.09928785 -0.02073156046 0.005902700705)
(15.10489932 -0.02458830827 0.006147228393)
(15.11088108 -0.02861716382 0.006467329297)
(15.11721298 -0.03272067611 0.006864537505)
(15.12381146 -0.03676224445 0.007378090841)
(15.13050838 -0.0405874222 0.008049516136)
(15.13736028 -0.04421207651 0.008869287449)
(15.14319085 -0.04706036462 0.009686171996)
(15.14887424 -0.04973762932 0.01086648184)
(15.1524018 -0.05146715579 0.01200760277)
(15.154473 -0.05305068918 0.01347458817)
(15.15456708 -0.0543795102 0.01473141807)
(15.15286321 -0.05625454658 0.01571283077)
(15.14983569 -0.0589816886 0.01566961833)
(15.14593635 -0.06283088731 0.01394042454)
(15.14195346 -0.06766213231 0.01015172407)
(15.13871154 -0.07324826727 0.004343485427)
(15.13725965 -0.07934091496 -0.002683383592)
(15.13743215 -0.08679757349 -0.01077132967)
(15.13953103 -0.09332515945 -0.01647357057)
(15.14235361 -0.1009305238 -0.02074157734)
(15.14554229 -0.1096124792 -0.02417475427)
(15.15000247 -0.1186400814 -0.02597083099)
(15.15532988 -0.1263369675 -0.02543974102)
(15.16156566 -0.1337042854 -0.02332091482)
(15.1660021 -0.1388552622 -0.02127838188)
(15.17022305 -0.1440950569 -0.01917941023)
(15.17083021 -0.1482856857 -0.01740288926)
(15.17897182 -0.1520104243 -0.01566276344)
(15.16834334 -0.1565254384 -0.01305658263)
(15.20140277 -0.1568727631 -0.01468290271)
(15.10598509 -0.1596925891 -0.01283007986)
(15.23225282 -0.1606603167 -0.06160695698)
(15.0162691 0.00106952523 0.005988927134)
(15.02258412 0.002093475987 0.006004951541)
(15.02696413 0.003660603205 0.009954502118)
(15.03590352 0.004738269557 0.007211083813)
(15.04213086 0.005952245808 0.00486296334)
(15.04593174 0.006838392986 0.003487635091)
(15.04996421 0.007116283413 0.002864377208)
(15.0542438 0.006689153641 0.004014630746)
(15.05852479 0.005885736817 0.005371324561)
(15.06256541 0.004901578492 0.005937893467)
(15.06644368 0.003679854422 0.006097215131)
(15.07020478 0.002085685873 0.006171518405)
(15.07393899 4.367503587e-05 0.006243906443)
(15.0777666 -0.002477033343 0.00631714302)
(15.08175633 -0.005478489487 0.006402465125)
(15.08596811 -0.008947309223 0.006515770665)
(15.09047559 -0.01287126644 0.006668206502)
(15.0953582 -0.01722458884 0.006871871633)
(15.10069036 -0.02195541634 0.007138359177)
(15.10652369 -0.02697446188 0.007470716496)
(15.11286325 -0.03214993879 0.007875554776)
(15.11966792 -0.03730011628 0.008402493561)
(15.12672611 -0.04219645705 0.009083267701)
(15.13419005 -0.04680597806 0.009912138685)
(15.14062601 -0.05035579896 0.0107461119)
(15.14732402 -0.05364830352 0.01205482728)
(15.15114702 -0.05533105456 0.01316119259)
(15.15396512 -0.05686516319 0.01489299178)
(15.15352992 -0.05765617566 0.01607504686)
(15.1515125 -0.05886042094 0.0169892936)
(15.14799521 -0.06077812782 0.01659096029)
(15.14279962 -0.06339373115 0.0142664877)
(15.13692838 -0.06682391376 0.00933687596)
(15.13227451 -0.07108160667 0.00157027965)
(15.12943377 -0.07634551753 -0.007773057821)
(15.12853045 -0.08320399286 -0.01710865237)
(15.12923686 -0.09107412639 -0.02520172118)
(15.13078799 -0.09997375561 -0.03231784618)
(15.13342035 -0.1098124271 -0.03830582857)
(15.13845988 -0.1201344794 -0.04198568708)
(15.14482382 -0.1297484043 -0.04227055104)
(15.15323994 -0.1393906306 -0.04067803809)
(15.1606006 -0.1466315973 -0.03920563048)
(15.16587688 -0.1528299234 -0.03772747231)
(15.17015383 -0.1587637441 -0.03601851043)
(15.17595446 -0.1645121323 -0.03330746978)
(15.16890037 -0.1681150314 -0.03051621705)
(15.20281981 -0.1687028377 -0.03161088801)
(15.10960453 -0.1718592017 -0.02685269281)
(15.23824614 -0.1724377972 -0.07506494807)
(15.01623634 0.000646093824 0.00604176006)
(15.02214663 0.001224919633 0.00600227058)
(15.02563625 0.001905641503 0.01004415042)
(15.03444131 0.00220044465 0.007161686239)
(15.03935854 0.002251124882 0.004585992246)
(15.04316649 0.002128846454 0.002327149462)
(15.04548247 0.00177729858 0.001286842692)
(15.04892729 0.0005961589718 0.002572170496)
(15.05283254 -0.001210248418 0.004303180683)
(15.05701149 -0.003308851075 0.005075025456)
(15.06113864 -0.005644070536 0.005267318594)
(15.06498569 -0.008218687453 0.005354492414)
(15.06871544 -0.01113906918 0.0054262901)
(15.0724575 -0.01447669519 0.005479925313)
(15.07630084 -0.01828766054 0.005541340547)
(15.08032388 -0.02260758305 0.005627191052)
(15.08462506 -0.02745504708 0.005751105529)
(15.08931879 -0.03282375289 0.0059221707)
(15.09451962 -0.03866861959 0.006146649406)
(15.10032514 -0.04489609337 0.00643542299)
(15.10679655 -0.05135108091 0.006791985613)
(15.11395118 -0.05780681559 0.00726357032)
(15.12164183 -0.06396458208 0.007903595141)
(15.1299014 -0.06961947634 0.008688122469)
(15.13767599 -0.07407803894 0.009548430186)
(15.14551046 -0.07766207785 0.01080465275)
(15.15091999 -0.07945745089 0.01205168373)
(15.15478301 -0.0801112492 0.01377084468)
(15.15557102 -0.07998554773 0.01490614368)
(15.15346241 -0.07975281351 0.01569151851)
(15.14890711 -0.07971485978 0.01492059424)
(15.1439677 -0.08027826227 0.01210564457)
(15.13748304 -0.08139925004 0.005850127144)
(15.13219947 -0.08300676929 -0.003986139768)
(15.12825282 -0.08476054816 -0.01572830875)
(15.1257104 -0.08695295317 -0.02774629013)
(15.12497462 -0.08968317128 -0.03757849945)
(15.12559747 -0.09420670132 -0.04642107627)
(15.12784498 -0.1010618943 -0.05398848774)
(15.13320417 -0.1095977427 -0.05888196061)
(15.13957224 -0.1183833601 -0.05952607552)
(15.1494859 -0.128500695 -0.05789226661)
(15.15708104 -0.1360398785 -0.05639558659)
(15.16415266 -0.1419189098 -0.05535756457)
(15.16813438 -0.1507337789 -0.05214243406)
(15.17457905 -0.1542804965 -0.0499761791)
(15.16879403 -0.1575422465 -0.04681272602)
(15.20309429 -0.1578775073 -0.04799800794)
(15.11117941 -0.159824996 -0.04116229875)
(15.24178105 -0.1597526421 -0.08911968102)
(15.0162987 0.0004498699348 0.006025954527)
(15.02221062 0.0008914382978 0.005948229273)
(15.0261782 0.001496071513 0.00986908061)
(15.03464193 0.001862921878 0.007039049711)
(15.04043437 0.002145360615 0.004165895277)
(15.04378751 0.002309451724 0.001830677358)
(15.04693644 0.002303340487 0.0004263557532)
(15.04910539 0.002032274465 0.001549067218)
(15.0526918 0.001205479678 0.003568333746)
(15.05639064 -0.0001953081063 0.004724466157)
(15.05988475 -0.002035499998 0.005115493519)
(15.06313478 -0.004317212831 0.005294854638)
(15.06621526 -0.00709995116 0.00542825784)
(15.06926384 -0.01046767937 0.005537187533)
(15.07239149 -0.01448335941 0.005643576689)
(15.07569738 -0.01919017708 0.005761674908)
(15.0792977 -0.02461678948 0.005903029781)
(15.0833366 -0.03076900286 0.006077769986)
(15.08797487 -0.03761076161 0.006293826749)
(15.09337672 -0.04503952281 0.00655737127)
(15.09967293 -0.05287123075 0.006876704491)
(15.10696016 -0.06081964635 0.007286335867)
(15.11515905 -0.0684635604 0.007851280891)
(15.12430591 -0.0755137083 0.008572849877)
(15.13349382 -0.08112946632 0.009424484143)
(15.1427847 -0.08522207916 0.01061302554)
(15.1496998 -0.08689167983 0.01196503504)
(15.15522336 -0.08686977798 0.01332762169)
(15.15643177 -0.08496120456 0.01502471861)
(15.15450112 -0.08320304418 0.0157058892)
(15.14904548 -0.08051532439 0.01482979229)
(15.14335708 -0.07887455082 0.01154023161)
(15.13592914 -0.07767005502 0.003728611714)
(15.13064173 -0.07710154415 -0.008142894674)
(15.12733684 -0.07728797096 -0.02191746297)
(15.12538469 -0.07845346813 -0.03666421994)
(15.12360022 -0.0806930991 -0.04860157109)
(15.12126276 -0.08486464725 -0.05892448099)
(15.12043479 -0.0917801218 -0.06796140367)
(15.12406915 -0.1004170179 -0.07353290728)
(15.1302554 -0.1099555678 -0.07432580457)
(15.14050015 -0.1211371975 -0.07255695387)
(15.14943826 -0.1303420638 -0.07067985543)
(15.15760064 -0.1373101625 -0.06936153649)
(15.16488604 -0.1459956392 -0.06627774587)
(15.17124778 -0.1519803088 -0.0628710934)
(15.16872817 -0.1558046033 -0.05942283427)
(15.20496274 -0.1578671611 -0.05933459958)
(15.11490964 -0.1612794809 -0.04997096372)
(15.24723766 -0.1620462828 -0.09729460518)
(15.01631661 0.0002072328194 0.006047853472)
(15.02189973 0.0004058151127 0.005954452791)
(15.02572072 0.0005505703029 0.009923586151)
(15.03341765 0.0004874617055 0.007128372127)
(15.03899646 0.0001071851617 0.004049695386)
(15.04157884 -0.0003897635609 0.001682765264)
(15.04459509 -0.001419607456 -6.446245684e-05)
(15.04615247 -0.002351911259 0.0009676882897)
(15.04899783 -0.003828570194 0.002966167676)
(15.05239385 -0.005862941775 0.004247797642)
(15.05568784 -0.008408580704 0.004807453423)
(15.05868367 -0.01134930535 0.005027325525)
(15.0613977 -0.01477115941 0.005149515901)
(15.06397827 -0.01879504367 0.005249792387)
(15.06656021 -0.02351643468 0.005348955138)
(15.06925761 -0.0290139155 0.005452320445)
(15.0722067 -0.0353552737 0.005566061173)
(15.07558629 -0.04258072294 0.005693798588)
(15.07961978 -0.05069109674 0.005841451024)
(15.08454606 -0.0595914983 0.006003331783)
(15.09064056 -0.06910124381 0.006190639333)
(15.09803124 -0.07891230565 0.006449945363)
(15.10714249 -0.08848412573 0.006820077505)
(15.11760615 -0.09721781147 0.007360741568)
(15.12832612 -0.1042396474 0.008023753807)
(15.14041361 -0.1091341726 0.009104490461)
(15.14913027 -0.1105409407 0.01035997373)
(15.15797054 -0.1093014772 0.01189871678)
(15.1608801 -0.1052618435 0.01365537195)
(15.15935054 -0.1011683729 0.01468854095)
(15.15403661 -0.09576208223 0.01379816489)
(15.14834571 -0.09218638823 0.01025039208)
(15.1400396 -0.08826375984 0.000794599407)
(15.13326365 -0.08349566612 -0.01411376278)
(15.12797775 -0.07770383746 -0.03218298008)
(15.12373479 -0.07072552256 -0.05182733952)
(15.12014025 -0.06465596769 -0.06847187781)
(15.11665787 -0.06293255731 -0.08175219621)
(15.11503644 -0.06635783803 -0.09147006617)
(15.11793581 -0.07336263436 -0.09726918825)
(15.12395058 -0.08263882374 -0.09782466251)
(15.13402871 -0.09433014587 -0.09560366391)
(15.14416146 -0.1046344735 -0.09364458991)
(15.15174934 -0.1126583032 -0.09193506718)
(15.16065206 -0.1223023981 -0.08837907463)
(15.16721676 -0.128148279 -0.0848635037)
(15.1652948 -0.1311180131 -0.08122466291)
(15.20154166 -0.1320912025 -0.08124623968)
(15.11372079 -0.1339510179 -0.06899767263)
(15.2496711 -0.1337330547 -0.1157098504)
(15.01632431 0.0001002364424 0.006034218818)
(15.02195245 0.0002240147946 0.005935737423)
(15.02579955 0.0003536956162 0.009877005793)
(15.03355778 0.0003697385877 0.0070529269)
(15.03909943 0.0002277807337 0.003928380735)
(15.04161385 -1.854000651e-05 0.001479407563)
(15.04446019 -0.0006563171287 -0.0004135928189)
(15.04585816 -0.001307567458 0.0005071085188)
(15.04814048 -0.002469636205 0.002518114783)
(15.05092974 -0.003947858058 0.003838823192)
(15.0536877 -0.006074351974 0.004594075993)
(15.05612419 -0.008742583941 0.004922306492)
(15.05816444 -0.01201679107 0.005083082856)
(15.05995554 -0.01601437973 0.005208257136)
(15.06165455 -0.02085105338 0.00532642986)
(15.06338871 -0.02663670923 0.005432507551)
(15.06531491 -0.03347621454 0.005526233216)
(15.0676404 -0.04144842039 0.005597563604)
(15.07068337 -0.05059582195 0.005658372144)
(15.07469848 -0.06088123688 0.005677554907)
(15.08043866 -0.07214576176 0.005663492433)
(15.08784204 -0.0840647539 0.005662461288)
(15.09742709 -0.09592331816 0.005744235289)
(15.10945947 -0.1067386485 0.006041840376)
(15.1225044 -0.1155142544 0.006545394954)
(15.13655057 -0.1211990511 0.007361770666)
(15.15001289 -0.1225214809 0.008751931128)
(15.16032237 -0.1195010958 0.01050900649)
(15.16633239 -0.1124481458 0.01248168772)
(15.16476919 -0.103766713 0.01392308744)
(15.15936516 -0.09416893993 0.01345484298)
(15.15225906 -0.08745930048 0.009350167772)
(15.1456262 -0.08309126269 0.0004537773539)
(15.14218993 -0.08024773359 -0.0136105235)
(15.14120651 -0.07754884398 -0.02980621528)
(15.13976478 -0.07252545536 -0.04614978228)
(15.13350246 -0.06473461186 -0.06322223169)
(15.12279132 -0.05767720092 -0.08001178144)
(15.1112526 -0.05507063875 -0.09822026314)
(15.11013418 -0.05825231878 -0.1048323481)
(15.11385942 -0.06578353279 -0.1061489706)
(15.12280754 -0.07635484115 -0.1048990668)
(15.13303041 -0.0868172696 -0.103582087)
(15.14182661 -0.09688229362 -0.1010932901)
(15.15409863 -0.1047105631 -0.0985552176)
(15.16427142 -0.1151441724 -0.09197310508)
(15.16591829 -0.1186648152 -0.08811071422)
(15.20533391 -0.1229084516 -0.08650173671)
(15.11909052 -0.1256351194 -0.07192518125)
(15.25561731 -0.1261442376 -0.1180653141)
(15.01632185 -5.219972087e-05 0.006042872264)
(15.021786 -6.739565126e-05 0.005936687865)
(15.02553432 -0.0002598995244 0.009907236655)
(15.0329299 -0.0005055079808 0.007099761511)
(15.03829916 -0.001062607714 0.003907860864)
(15.04039426 -0.001618536999 0.001486763147)
(15.04299354 -0.002785314501 -0.0004957546895)
(15.04395128 -0.003717585881 0.0003816733849)
(15.04583059 -0.005346924397 0.002368417001)
(15.04817643 -0.007093592161 0.003688009556)
(15.0504416 -0.009486495287 0.004474695581)
(15.0523399 -0.01245502154 0.004819921856)
(15.05374999 -0.01605783252 0.004976489266)
(15.05478889 -0.02041342203 0.005087154946)
(15.05560431 -0.02566402914 0.005183161951)
(15.05632159 -0.03196408302 0.005250637969)
(15.05711417 -0.0394716483 0.005275922677)
(15.05820425 -0.04832293844 0.005229782819)
(15.06001806 -0.0586414303 0.00511792543)
(15.06298839 -0.07054125889 0.004871558521)
(15.06795203 -0.08386807031 0.004551193092)
(15.07512346 -0.09819836436 0.004117349894)
(15.08465263 -0.1128185493 0.003721672115)
(15.09843153 -0.1264014322 0.003448649399)
(15.11485089 -0.1374395612 0.003263712018)
(15.13290551 -0.1445080314 0.003617308795)
(15.15129461 -0.1463828061 0.004973488606)
(15.16703646 -0.1419792224 0.007382085684)
(15.17663422 -0.1333443542 0.01006655274)
(15.17684369 -0.1222422777 0.01223327594)
(15.17162035 -0.1110234139 0.01248577825)
(15.16100817 -0.1002801556 0.009016428732)
(15.1490271 -0.08988399989 0.0004118954162)
(15.14075492 -0.07760776254 -0.01429386822)
(15.13731324 -0.0620453314 -0.03227959002)
(15.13814577 -0.0403420454 -0.04995548523)
(15.13590281 -0.01819463578 -0.0711104402)
(15.12820827 -0.009484626045 -0.08900677369)
(15.11620665 -0.009554135705 -0.1081140735)
(15.10908619 -0.01667988183 -0.1193482149)
(15.10971826 -0.02610937897 -0.1225259957)
(15.11626807 -0.03897892191 -0.122962212)
(15.12468012 -0.05201339096 -0.1222167083)
(15.13449609 -0.06448563574 -0.1200406415)
(15.14470104 -0.07282242363 -0.1183385595)
(15.15620749 -0.08271820853 -0.1131018518)
(15.15747992 -0.08569761579 -0.1097220467)
(15.19640379 -0.08986993668 -0.1081117346)
(15.11493815 -0.08898439001 -0.09205889863)
(15.25614144 -0.08787984983 -0.1376062688)
(15.01634157 -6.751625194e-05 0.006039022568)
(15.02176185 -8.482951358e-05 0.005928032432)
(15.0255491 -0.0002228077005 0.009891051736)
(15.03276103 -0.0003904137882 0.007094517311)
(15.03814166 -0.0007899893418 0.003830905527)
(15.03996911 -0.001185016848 0.001432256052)
(15.04250186 -0.002134072812 -0.0006289831053)
(15.04307902 -0.002846602071 0.000246263678)
(15.04466398 -0.004233182329 0.002250340868)
(15.04654085 -0.005683803367 0.00353634721)
(15.04826938 -0.007767867407 0.004344716901)
(15.04954283 -0.01044931807 0.004720034296)
(15.05020873 -0.01380471802 0.004893862905)
(15.05035625 -0.01796813481 0.005007557572)
(15.05011549 -0.02310487635 0.005080994474)
(15.049592 -0.02941015662 0.005116495064)
(15.04899233 -0.03709384906 0.005045177147)
(15.04843421 -0.04636526567 0.004860715557)
(15.04879314 -0.05753869097 0.004484845229)
(15.05024679 -0.07077897133 0.003916199565)
(15.05352773 -0.0859506114 0.003146728606)
(15.05986429 -0.1026083898 0.002092774142)
(15.06976885 -0.1201745634 0.0009026385706)
(15.08478048 -0.1371803052 -0.0002472677131)
(15.10566455 -0.1511724795 -0.001588973091)
(15.12906862 -0.1594073483 -0.001923903178)
(15.15251217 -0.1593076133 -0.000615450309)
(15.17308122 -0.150299802 0.0023989471)
(15.18583146 -0.1324892443 0.006675234411)
(15.18743103 -0.1153457545 0.009762967501)
(15.18162069 -0.09881947231 0.01038455969)
(15.17408052 -0.08939080345 0.007944968929)
(15.17082896 -0.08413664008 -0.0006457689029)
(15.17449592 -0.08199632943 -0.01080547109)
(15.18275689 -0.07912795918 -0.02027945875)
(15.18229552 -0.06203793935 -0.02332218129)
(15.15996478 -0.03252869694 -0.03671870372)
(15.12749654 -0.003599514187 -0.05792364159)
(15.10341272 0.01370615525 -0.08363585681)
(15.09160353 0.01421690009 -0.09838701143)
(15.09115758 0.007798582846 -0.1026796291)
(15.09638837 -0.003578266975 -0.1041726832)
(15.10615968 -0.01630414703 -0.1041424527)
(15.11944939 -0.02954400552 -0.1022313416)
(15.13238318 -0.03953048401 -0.09950354188)
(15.15177649 -0.05250342403 -0.09223024789)
(15.1547776 -0.05729570327 -0.08743651007)
(15.1974674 -0.06292237083 -0.08393533751)
(15.11794767 -0.06309149214 -0.06869685664)
(15.25587778 -0.06259521468 -0.1158540295)
(15.01634359 -0.0001509864415 0.006044228329)
(15.02166388 -0.0002409832543 0.005927100719)
(15.02543087 -0.0005142534755 0.009904630935)
(15.0323727 -0.0007752122052 0.007131968747)
(15.03769103 -0.00131770567 0.003803330324)
(15.03916932 -0.001786438623 0.001455033199)
(15.04156099 -0.002913036568 -0.0006730561444)
(15.04172192 -0.003615738154 0.0001974639892)
(15.04298266 -0.005104076813 0.002236490113)
(15.04444273 -0.006571881172 0.003497072254)
(15.04566134 -0.008651060801 0.004302686462)
(15.04633409 -0.01129651741 0.004678404303)
(15.04627603 -0.01459066019 0.004843415933)
(15.04554086 -0.01867747671 0.004941070669)
(15.04422053 -0.02373906489 0.004974882326)
(15.0424071 -0.03001047556 0.004930305618)
(15.04022364 -0.03772592703 0.004749586705)
(15.03794485 -0.04723342711 0.00432975028)
(15.03647362 -0.05901616944 0.003641656522)
(15.03548596 -0.07326613665 0.002640252377)
(15.03680831 -0.08993977151 0.001173367747)
(15.0413182 -0.1089125519 -0.0009857563411)
(15.05192522 -0.1296361796 -0.003544317421)
(15.06825225 -0.1507572308 -0.006606574734)
(15.09332624 -0.1697118274 -0.009691776257)
(15.12680206 -0.1827606253 -0.01166029106)
(15.16271601 -0.1868393896 -0.01055178466)
(15.19546246 -0.1784183619 -0.005003545411)
(15.21295043 -0.160131705 0.00239978153)
(15.21218244 -0.1394562727 0.007913472118)
(15.19812123 -0.1188561906 0.009935909914)
(15.17441001 -0.09870753949 0.007147352192)
(15.16040338 -0.08427356029 -0.0001317505347)
(15.14507394 -0.06594168904 -0.01924103702)
(15.16971948 -0.0623386717 -0.02691384576)
(15.18017986 -0.003169645965 -0.03465561181)
(15.19029682 0.02987491803 -0.03611051305)
(15.16261331 0.03429060408 -0.0487217511)
(15.12643586 0.03828031143 -0.07309481216)
(15.09947182 0.03496721993 -0.09851216664)
(15.08927733 0.02324946421 -0.1121177573)
(15.09018314 0.007540163306 -0.1198531154)
(15.097526 -0.007656415532 -0.124551587)
(15.10972527 -0.02174146577 -0.1266986901)
(15.12217755 -0.03132996121 -0.1278635499)
(15.139684 -0.04353215076 -0.123468017)
(15.14444253 -0.04709682267 -0.1206159262)
(15.18683305 -0.05150141836 -0.1163253851)
(15.11444182 -0.04787617358 -0.1011579103)
(15.25794153 -0.04620183457 -0.1459948144)
(15.01634325 -0.0001330428063 0.006040020449)
(15.02165455 -0.0002057469254 0.005922417812)
(15.02533528 -0.0003997460474 0.009907333735)
(15.03228994 -0.0005989419502 0.007106290487)
(15.03740335 -0.0009923065566 0.003793579063)
(15.03883312 -0.001357507081 0.001396803722)
(15.04095683 -0.002231250586 -0.0007225155282)
(15.04090225 -0.002756845039 0.0001471327233)
(15.041897 -0.00398261861 0.002223773193)
(15.04296355 -0.00515448603 0.003444320433)
(15.04372195 -0.00687115225 0.004242199804)
(15.04383078 -0.009096572661 0.004619571809)
(15.04306836 -0.01192069436 0.004785639503)
(15.041457 -0.01549150004 0.004863952948)
(15.03902668 -0.01999917965 0.004867161903)
(15.03590023 -0.02570358287 0.00474244874)
(15.03189108 -0.03287372104 0.004420491153)
(15.02804726 -0.04192945192 0.003742989095)