/*--------------------------------*- C++ -*----------------------------------*\
| =========                 |                                                 |
| \\      /  F ield         | OpenFOAM: The Open Source CFD Toolbox           |
|  \\    /   O peration     | Version:  2.2.1                                 |
|   \\  /    A nd           | Web:      www.OpenFOAM.org                      |
|    \\/     M anipulation  |                                                 |
\*---------------------------------------------------------------------------*/
FoamFile
{
    version     2.0;
    format      ascii;
    class       volScalarField;
    location    "2";
    object      epsilon;
}
// * * * * * * * * * * * * * * * * * * * * * * * * * * * * * * * * * * * * * //

dimensions      [0 2 -3 0 0 0 0];

internalField   nonuniform List<scalar> 
86889
(
0.1173506094
0.04959677895
0.0265879492
0.0174338576
0.01357810835
0.0122013251
0.01220742958
0.01311285708
0.01468741415
0.01677543812
0.0191505044
0.02154584414
0.02381859029
0.02596705218
0.02813862109
0.03061287022
0.03326889874
0.03579835618
0.03801496452
0.0398349295
0.04125695088
0.04233882581
0.04313296066
0.04369861574
0.04410046713
0.04438929635
0.04460723246
0.04478309203
0.04493642702
0.04508065588
0.04554484359
0.04698375105
0.04972524656
0.05257285661
0.05188225889
0.05063747817
0.04946203312
0.04838045855
0.04747665085
0.04675469935
0.04634794041
0.04622367884
0.0462162996
0.04627833498
0.04637666709
0.04646783602
0.046604175
0.0464901071
0.0498356127
0.1782019226
0.1106576843
0.05025744633
0.02634687927
0.016160136
0.01147892924
0.009349562853
0.008597412471
0.008719030269
0.009483373983
0.01075834704
0.01239582884
0.01420339335
0.01602449645
0.01779671649
0.019532588
0.02124469066
0.02286445023
0.0242879153
0.02547825338
0.02644546313
0.02718553999
0.02772115016
0.02811029309
0.02839159258
0.02859874496
0.02876216457
0.028899127
0.0290293499
0.02914942704
0.0292705005
0.02938481449
0.02950328385
0.02964641406
0.029680858
0.02952217809
0.02937632157
0.02892444954
0.02844930815
0.02806116598
0.0277715916
0.02757223222
0.02762729015
0.02773988962
0.02788973364
0.02807682122
0.02826357799
0.02848289376
0.02848037586
0.03015330507
0.1132748648
0.109605827
0.05157739773
0.02582651542
0.01520587387
0.01010479405
0.007694053841
0.006843219498
0.006875919696
0.007483184099
0.008537248316
0.009958331771
0.01165177899
0.01351006796
0.01543149812
0.01733379193
0.01915709979
0.02083746734
0.02228855134
0.02346075068
0.02436355036
0.02503920615
0.02553572141
0.02589740939
0.0261607391
0.02635839098
0.02651656171
0.02665437887
0.02678214436
0.02690563318
0.027020083
0.02711877138
0.02718335485
0.02721781735
0.02711641752
0.02691812849
0.02673200567
0.02624531389
0.02577434316
0.02539747352
0.02510882219
0.02490117744
0.02480849802
0.02479285733
0.02484043032
0.02495979607
0.02510809321
0.02535828739
0.02554065764
0.02637827928
0.1071340857
0.1094092112
0.05122854277
0.02488476319
0.01446511735
0.009483925804
0.006966730194
0.005948859466
0.005858597541
0.006352727922
0.007285767084
0.008588962337
0.01019137546
0.01197758031
0.01381127396
0.01559308682
0.01726343127
0.01874982868
0.0199753305
0.02091776847
0.02161054709
0.02210900141
0.02246248945
0.02271053194
0.02288745516
0.02302201942
0.02313397777
0.02323865633
0.0233420721
0.02344652544
0.02354545673
0.02362447984
0.02366864062
0.0236559757
0.02348542198
0.02332757723
0.02315092919
0.02287725552
0.02262509678
0.02243041203
0.02229214685
0.02220001069
0.02214188688
0.02210943819
0.02209821561
0.02214768144
0.02224429097
0.02252244033
0.0228845836
0.02433803496
0.1054125776
0.1094045449
0.05114071015
0.02479051969
0.01429937598
0.009264434814
0.006746501006
0.005619657618
0.005422507562
0.005808162013
0.006637368085
0.007845270875
0.009359357339
0.01107061248
0.01285332686
0.01459851382
0.01622641279
0.01765799266
0.01881847955
0.01969152101
0.020314076
0.02074438256
0.02103680834
0.02123322232
0.02136768112
0.02146775485
0.02155339479
0.02163718794
0.02172378567
0.02181422044
0.02189747563
0.02195803791
0.02198298057
0.02195037261
0.02181275683
0.02168729603
0.02156110738
0.02141969334
0.02129493976
0.0212018306
0.02114038454
0.02110648137
0.02109441488
0.02109992351
0.02112077472
0.02115443017
0.02122981718
0.02150868615
0.02201398259
0.02357100386
0.1048914368
0.10940397
0.05111880599
0.02477135345
0.01427419289
0.009170207104
0.006629153138
0.005472302363
0.005238360672
0.005583953652
0.006372345434
0.00754171861
0.009023245759
0.01070568465
0.01245592983
0.01416557042
0.0157534713
0.0171345132
0.01823929231
0.01905957657
0.0196348724
0.020015539
0.02026253812
0.02042048706
0.02052429194
0.02060030972
0.02066745139
0.02073585625
0.02081279644
0.02088179564
0.02094940748
0.02100290018
0.02102526315
0.02099319118
0.02089214152
0.02080391145
0.02072096883
0.02064227839
0.02057893439
0.02053635899
0.02051281343
0.02047440317
0.02043051221
0.02044734286
0.02049342483
0.02056052045
0.02070115938
0.02096221206
0.02154575461
0.0231462944
0.1046705863
0.1094033373
0.05111389608
0.02476697762
0.0142672953
0.009160645955
0.006593865688
0.005410560357
0.005159081559
0.005481566991
0.006245538406
0.007389960708
0.008847218527
0.01050881994
0.01224270409
0.01393597421
0.0155049625
0.01686593534
0.01795068
0.01875337801
0.01931277524
0.01966888718
0.01988839622
0.0200245155
0.02011121449
0.02017209246
0.02022721609
0.02028812648
0.02035855874
0.02043728233
0.02051512597
0.02058390396
0.02062140136
0.02059913371
0.02053745763
0.02048587303
0.02043761537
0.02039348958
0.02036086712
0.02034310019
0.02033871825
0.0202836429
0.02020046383
0.0202014244
0.02026172417
0.02035904574
0.02053766653
0.02082673661
0.02142844979
0.02292725988
0.1045575466
0.1094026882
0.05111270147
0.02476610159
0.01426585903
0.009158563271
0.006591185769
0.00538544202
0.005117369214
0.00542882718
0.00618101415
0.007314699163
0.008764226019
0.01041851932
0.01214321918
0.01382596099
0.01538155476
0.0167246649
0.01779014718
0.0185750055
0.01911816563
0.01945708864
0.01965534503
0.01977232255
0.01984170253
0.0198892936
0.01993401841
0.01998737131
0.02006008149
0.0201559644
0.02025944395
0.02035349751
0.02041008545
0.02039799507
0.02037014102
0.0203477968
0.02032703885
0.02030986062
0.02029933094
0.02029681411
0.02030285722
0.02025513167
0.02017697591
0.02016163118
0.02022775225
0.02033182946
0.02051902059
0.02081711759
0.0214298068
0.02299038686
0.1047275651
0.1094020181
0.05111197276
0.02476543375
0.01426508966
0.009157676795
0.006590209434
0.005383629278
0.005103397414
0.005402363889
0.006146420854
0.00727036486
0.008710321977
0.01035678958
0.01207420391
0.01374775649
0.01529198068
0.01662340194
0.01767800108
0.01845414899
0.01898818903
0.01931497537
0.01949265222
0.01958786559
0.01964235067
0.01967941422
0.019715591
0.01976418753
0.01984355422
0.01995461679
0.02007700061
0.02019023451
0.02025980902
0.0202625961
0.02026037323
0.02026069278
0.02025651102
0.0202533055
0.02025240055
0.02025670428
0.02026703769
0.02022229488
0.02014603063
0.02015231003
0.02020766611
0.02031781362
0.0205129888
0.02081663676
0.02143042674
0.02276202098
0.1045169681
0.1094013554
0.05111144777
0.0247650961
0.01426483357
0.009157441222
0.006589941131
0.005382043544
0.005100855432
0.005387955082
0.006128054105
0.007248959882
0.008687359791
0.01033210221
0.01204682759
0.01371602089
0.01525326684
0.01657609901
0.01762284422
0.01839429863
0.01892271075
0.01924425527
0.01941812031
0.01950246303
0.01954516222
0.0195733496
0.01960187671
0.01964838384
0.01972467795
0.01983438441
0.01996364324
0.02008307887
0.02015573769
0.02017951455
0.02019939213
0.02022227482
0.02023668297
0.02024938155
0.02025751057
0.02026615683
0.02027913868
0.02024129884
0.02021380532
0.02024285962
0.02028394142
0.02039402754
0.02058163463
0.02088016048
0.02149441068
0.02298177563
0.1048319775
0.1094006951
0.05111092305
0.02476467586
0.01426447048
0.009157107384
0.006589629928
0.005381453931
0.005100120945
0.00538709933
0.006126451504
0.007246621947
0.008684689009
0.01032946323
0.0120438595
0.01371092087
0.01524391704
0.01656250623
0.01760718482
0.01838220435
0.01891369597
0.01924192331
0.01942814337
0.01952589478
0.01958020103
0.0196228598
0.01966577306
0.01970802437
0.01975589843
0.01984735637
0.01996768468
0.02008800937
0.02016634861
0.02020368361
0.02025126694
0.02029797736
0.02030987294
0.02028441509
0.02027014556
0.02027748785
0.02028653764
0.02028283733
0.02030349389
0.02033524693
0.02037854241
0.02048951708
0.02066613765
0.02095419721
0.02155587636
0.02267425505
0.1044503914
0.1094000999
0.05111044416
0.02476434739
0.01426421389
0.009156881004
0.006589409476
0.005380612303
0.005098895996
0.005385569261
0.006124586991
0.007245158408
0.008684023486
0.01032954973
0.01204431824
0.01370960993
0.01523756596
0.01655018228
0.01759180371
0.01837179563
0.01891121344
0.01925008972
0.01944839627
0.01956054238
0.01962797079
0.01968619553
0.01975344564
0.01981571695
0.01988349195
0.01995746707
0.02004247414
0.02013169838
0.02019710128
0.02029434485
0.02043882898
0.02060506366
0.02068403766
0.02061286226
0.0204708975
0.02048336866
0.02051012118
0.02054606325
0.02057793425
0.02061670218
0.02066423228
0.02075918962
0.02091382038
0.0211844707
0.02177511793
0.02340907687
0.1054311402
0.1093995404
0.05111001938
0.0247640361
0.01426396203
0.009156660734
0.006589203806
0.005380108029
0.005098173603
0.005384672695
0.00612340098
0.007243955684
0.00868285575
0.0103285175
0.01204345926
0.01370695051
0.01522944946
0.01653590627
0.01757667345
0.01836672993
0.01891716676
0.01926617148
0.01947349016
0.01960073598
0.01968957397
0.01976213721
0.0198411127
0.01993836117
0.02002852397
0.02013036612
0.02023586625
0.02037621104
0.0204716847
0.02061363587
0.02086457367
0.02127502771
0.02090796881
0.02068703482
0.02052046811
0.02040272679
0.02044070425
0.02048939086
0.02052940417
0.02056756152
0.02060924051
0.02071651613
0.02088222139
0.02115807103
0.02174878635
0.02278716699
0.1045318068
0.1093990688
0.05110965406
0.02476378044
0.01426376005
0.009156485128
0.006589037226
0.005379611523
0.005097436354
0.005383906777
0.006122530909
0.007243207751
0.008682072166
0.01032774318
0.0120429608
0.01370489004
0.01522147636
0.0165212117
0.01756370726
0.01836730672
0.01893010461
0.01928950717
0.01950884397
0.01964931641
0.01975063213
0.01983474716
0.01992017111
0.02003561504
0.02014205885
0.02026703757
0.02039772813
0.02052227425
0.02068761873
0.02100227907
0.02154427621
0.02232095637
0.02301992142
0.02301150812
0.02296202171
0.02282235785
0.02271794833
0.02261206701
0.02247425143
0.02231348923
0.02218496662
0.02209738454
0.02207714058
0.02217480441
0.02259596076
0.02377940762
0.1052035203
0.1093986765
0.05110934986
0.02476356237
0.01426358764
0.009156336364
0.00658889874
0.005379280278
0.005096942111
0.005383518949
0.006122102684
0.007242694175
0.008681186696
0.01032654103
0.01204196372
0.0137027002
0.01521372212
0.01650636226
0.01755320457
0.01836552032
0.01893862595
0.01931357156
0.01954933611
0.0196975604
0.01980072184
0.0199001432
0.02002570457
0.02019227649
0.0202789085
0.02047197682
0.0205553196
0.02088717813
0.02118768113
0.02154303182
0.02220409424
0.022912073
0.0247052054
0.02971669487
0.0429079036
0.04309609129
0.04127069177
0.03915390981
0.03746113738
0.03584932795
0.03439251761
0.03336375901
0.03280662728
0.03271876673
0.03265377179
0.03448838245
0.113319966
0.109398389
0.05110912666
0.02476340507
0.01426346842
0.009156241093
0.006588802344
0.00537909279
0.00509688523
0.005383763049
0.006122268121
0.007242449021
0.008680345596
0.01032524665
0.0120407944
0.01370080347
0.01520736299
0.01649293396
0.01754358746
0.01835876647
0.01893674849
0.01932627533
0.01957596743
0.01972404248
0.01983187367
0.01996089669
0.02017334661
0.02054993795
0.02018114251
0.02061131232
0.02007628543
0.02021200371
0.02055840504
0.02098621547
0.02160886152
0.02246987036
0.02342864028
0.02380771036
0.02417951518
0.02497080846
0.02545750862
0.02548940775
0.0252950591
0.02508426676
0.02482821571
0.02469502071
0.02468541044
0.02491595529
0.02531889504
0.02723030999
0.1080855205
0.1093982108
0.05110898754
0.02476330708
0.01426339376
0.009156179602
0.006588741696
0.005378969225
0.005096967515
0.005384243069
0.006122919311
0.007242421487
0.008679628118
0.01032406764
0.01203958523
0.01369925494
0.01520296606
0.01648417856
0.01753709741
0.01835257655
0.01893110393
0.01932396582
0.01957788814
0.0196814039
0.01982134954
0.02010129027
0.0205795851
0.02120478353
0.02155788172
0.02198865084
0.02231160154
0.02293098404
0.02489750895
0.02703446992
0.02709173109
0.02682450839
0.02618099925
0.02563889257
0.02522259876
0.02568130727
0.02621545649
0.0263672063
0.02618650829
0.02564480337
0.02502842715
0.02473244598
0.02450158991
0.02447152246
0.02461891029
0.02577997981
0.1069575257
0.1093981488
0.05110894408
0.02476327598
0.01426336967
0.009156160461
0.006588723535
0.005378935232
0.005097025741
0.005384440757
0.006123352296
0.007242428357
0.008679301659
0.01032356513
0.01203903455
0.01369859413
0.01520118107
0.01648126922
0.01753489774
0.01835023102
0.01892767247
0.01931793598
0.0195670389
0.01963652302
0.01978398688
0.02016871973
0.02061596008
0.02140133586
0.02232443942
0.02290740544
0.03704285449
0.04054973956
0.04645206414
0.05229367755
0.04999298429
0.0472392457
0.04513063581
0.04207750574
0.03925860731
0.03715602747
0.0367017708
0.03604290511
0.03472145031
0.03287248807
0.03076567425
0.02887748357
0.02725719828
0.02617433457
0.02566634516
0.02667810319
0.1077346294
0.109398204
0.05110900119
0.02476331761
0.0142634001
0.009156184946
0.006588747628
0.005378968345
0.005096888899
0.005384080105
0.006122684096
0.007242432781
0.00867980224
0.01032426294
0.0120397221
0.01369932077
0.01520307435
0.01648439634
0.01753728622
0.0183527699
0.01893133439
0.01932426562
0.01957828214
0.01968327466
0.01982267751
0.02010287059
0.02058166402
0.02120647288
0.02156168478
0.02252333504
0.02557534081
0.03452302143
0.05258998737
0.07304226753
0.06510437896
0.05871264398
0.05925124583
0.05115946484
0.04609335738
0.0420083992
0.03855426039
0.03581116341
0.03374069751
0.03169703386
0.0298341391
0.02854746649
0.02752429803
0.02685838086
0.02634991191
0.02697687101
0.1072205092
0.1093983784
0.05110914358
0.02476342097
0.01426347925
0.009156250159
0.006588812787
0.005379095083
0.005096816854
0.005383597572
0.006122106529
0.007242463495
0.008680519208
0.01032545654
0.01204089263
0.01370079269
0.01520749604
0.01649334527
0.0175439511
0.0183591433
0.0189372057
0.01932686757
0.01957673679
0.01972522047
0.0198322764
0.01995968518
0.02017125729
0.02054993517
0.02018613671
0.02076505942
0.02594675846
0.04342090779
0.08020878316
0.1961638308
0.1569015573
0.1277369207
0.1161957854
0.09396064397
0.07731324653
0.0655348952
0.05670866673
0.04958187001
0.04397847514
0.03952402301
0.03595431471
0.03312010686
0.03090030749
0.02919916927
0.02817301217
0.02873892293
0.1059823501
0.1093986627
0.05110935594
0.02476357058
0.01426359915
0.00915635169
0.006588914512
0.005379284115
0.00509693462
0.005383478754
0.006122083932
0.007242772976
0.008681348138
0.01032666667
0.01204191815
0.0137025765
0.01521389045
0.01650689588
0.01755370053
0.01836605055
0.01893927371
0.01931441981
0.01955045854
0.01969897269
0.01980118218
0.01989713344
0.02002125647
0.02019034978
0.02028486215
0.02194030071
0.02959457826
0.05076865329
0.09982301021
0.3264977111
0.04243624845
0.04115000625
0.05219011915
0.0508394472
0.05510750655
0.05315142525
0.04923234818
0.0456590625
0.04241091769
0.03949098666
0.03696424381
0.03486733006
0.03317439174
0.03193471561
0.03089281156
0.0319046999
0.108435565
0.1093990472
0.05110965654
0.02476378682
0.01426377165
0.00915649876
0.006589053783
0.005379653761
0.005097511219
0.005383953574
0.006122589412
0.007243311838
0.008682199114
0.01032776765
0.01204276854
0.01370467613
0.01522168207
0.01652183935
0.01756434395
0.01836796851
0.01893093129
0.01929060176
0.01951026709
0.01965109826
0.0197528931
0.01984241934
0.01991961258
0.02003723139
0.02014827191
0.02131993348
0.02717129628
0.04446277629
0.08058261739
0.1960739693
0.157057376
0.1274455369
0.1080511702
0.08699580707
0.07003473091
0.05850180924
0.05081207598
0.0448032041
0.04027811819
0.03664777972
0.03370175193
0.03132663433
0.02940626787
0.02802485579
0.02700667973
0.02723825326
0.1064544269
0.1093995179
0.05111001477
0.02476403923
0.01426397126
0.009156674427
0.00658922212
0.005380146329
0.005098248359
0.005384753183
0.006123514123
0.007244110543
0.008683010353
0.01032852502
0.01204322329
0.0137067486
0.01522975089
0.01653660792
0.01757740244
0.01836749778
0.01891813227
0.01926743207
0.0194751084
0.01960276772
0.01969939005
0.0197901585
0.01985941243
0.01995530136
0.02004751617
0.02075588492
0.02391476825
0.03324263886
0.05115492332
0.07100782668
0.06325351342
0.05598820924
0.05024524644
0.04402697461
0.03906802764
0.03520226144
0.03235886238
0.03004092447
0.02811711251
0.02653349115
0.0252442043
0.02426264513
0.0235512705
0.02311873278
0.02316408409
0.02375073811
0.1048113308
0.1094000655
0.05111043272
0.02476434478
0.01426421702
0.009156893007
0.006589428838
0.005380684866
0.005099025796
0.005385718966
0.006124755262
0.007245314434
0.008684107998
0.01032942302
0.0120439333
0.01370932933
0.01523787263
0.01655090475
0.01759256267
0.01837264138
0.01891229496
0.01925150181
0.01945020542
0.01956446454
0.01964559304
0.0197221482
0.01978207342
0.01984160797
0.01990728703
0.02015487369
0.02127997557
0.02487622851
0.03174799051
0.03820113073
0.03583607284
0.03347732668
0.03142649539
0.02929835847
0.02740979205
0.02603643106
0.02491014715
0.02398325474
0.02321502647
0.02259747827
0.02211394599
0.0218133331
0.02166029562
0.02168864673
0.022093553
0.0231036088
0.1045934628
0.1094006581
0.05111089369
0.02476466298
0.01426447131
0.009157119299
0.0065896502
0.005381488175
0.005100183408
0.005387188285
0.006126591786
0.007246811772
0.008684845732
0.0103293955
0.01204352702
0.01371074564
0.01524437748
0.01656334378
0.01760800298
0.01838310909
0.01891485255
0.01924343313
0.01943006303
0.01952988406
0.01959066107
0.01964034968
0.01968056695
0.01972185394
0.01976888508
0.01990029212
0.02025600715
0.02132139497
0.02343801281
0.02542571524
0.02479771051
0.02415340609
0.02355126396
0.0229517475
0.02244206739
0.02203056627
0.02168709518
0.02138956299
0.0211716968
0.02101170126
0.02090301535
0.02088870821
0.02096668698
0.02117862186
0.0217251537
0.0229833151
0.104738806
0.1094013086
0.05111141806
0.02476507805
0.01426483101
0.009157447199
0.006589957485
0.005382131163
0.005101000222
0.005388121961
0.006128271464
0.007249182474
0.00868746916
0.01033193987
0.01204640416
0.01371578078
0.01525367665
0.01657688453
0.01762361935
0.01839521169
0.01892391589
0.01924583019
0.01942010195
0.01950485883
0.01954800921
0.01957673547
0.01960521193
0.01965102672
0.01972658702
0.01984351877
0.02001045834
0.02029273947
0.02079533289
0.02125549409
0.02112558279
0.02099398128
0.02085842133
0.02073430185
0.02062564174
0.02054117286
0.02047958783
0.02038402153
0.0203134957
0.02031205392
0.02033202462
0.02042899345
0.02060839008
0.02090360843
0.02151650188
0.02300790236
0.1048659251
0.1094019676
0.05111191785
0.02476540465
0.01426508844
0.009157695418
0.00659024115
0.005383696231
0.005103444578
0.005402442719
0.006146530559
0.007270494427
0.008710393536
0.01035659612
0.01207374393
0.01374753805
0.01529250089
0.01662430107
0.01767884051
0.01845507117
0.01898941376
0.01931658582
0.01949470402
0.01959025352
0.01964475768
0.01968223515
0.01971869495
0.01976697022
0.019846178
0.01995841565
0.0200833271
0.02021566213
0.0203538575
0.02043741174
0.02040417501
0.02037332195
0.02034076225
0.02031507806
0.02029788425
0.02029128905
0.0202948749
0.02024633424
0.02016832825
0.02017441114
0.02023092444
0.02033947511
0.02053412696
0.02083930462
0.02145799876
0.02295053046
0.1047222327
0.1094026279
0.05111260936
0.02476603265
0.01426581402
0.009158541443
0.006591178834
0.005385349451
0.005117225964
0.005428769743
0.006181118198
0.007314931618
0.008764432913
0.010418507
0.01214300497
0.01382600832
0.01538229517
0.01672572222
0.01779105778
0.01857591533
0.01911937644
0.01945846707
0.01965628244
0.01977291277
0.0198420152
0.01988930764
0.01993330494
0.01998553747
0.02005761029
0.02015399008
0.02025811029
0.02035351298
0.02041677536
0.02041338409
0.02038223617
0.02035625357
0.02033240146
0.02031291344
0.02030142084
0.02029874723
0.0203051512
0.02025837663
0.02018171701
0.02016842073
0.0202344969
0.02033854073
0.02052580302
0.02082462556
0.02143990913
0.02303995938
0.1047649427
0.1094032751
0.05111382784
0.02476693802
0.01426728294
0.009160651836
0.006593873914
0.005410702744
0.005159451915
0.005482018317
0.006246004344
0.007390276156
0.008847394939
0.01050866967
0.01224220645
0.01393565164
0.01550535812
0.01686663486
0.01795120888
0.0187540322
0.01931391352
0.01967039686
0.0198901097
0.02002639771
0.02011260406
0.02017385994
0.02022981365
0.02029101765
0.02036042926
0.02043857068
0.02051522785
0.02058434522
0.02062483339
0.02060561145
0.02054433838
0.02049301261
0.02044488152
0.02040120852
0.02036920282
0.02035185551
0.02034769564
0.0202926156
0.02020935293
0.02019044754
0.02025095669
0.02035110429
0.02053275926
0.02082661207
0.02143648028
0.02302309041
0.1046325162
0.1094038989
0.05111864747
0.02477121584
0.01427408656
0.009170105381
0.006629085229
0.005472123215
0.00523811821
0.0055836006
0.006371980291
0.007541249548
0.0090227519
0.01070518153
0.01245554344
0.01416567377
0.01575441184
0.01713585226
0.01824053954
0.01906079987
0.0196363871
0.02001746948
0.02026507629
0.02042381954
0.02052857937
0.02060460358
0.02067190771
0.02074191094
0.02081809341
0.02088637768
0.02095496087
0.02100768782
0.02103053105
0.02099977667
0.02089879231
0.02081024123
0.0207268704
0.02064803046
0.02058479155
0.0205425459
0.02051954745
0.02048187026
0.02043868775
0.0204359183
0.02048237156
0.02055244414
0.02069579048
0.02096396497
0.02155412071
0.0231872358
0.1046738677
0.1094044856
0.05114079222
0.02479061522
0.01429943007
0.009264490691
0.006746591459
0.005620389022
0.005423669353
0.005809498481
0.006638767032
0.007847278229
0.009361570604
0.01107275309
0.01285487502
0.01459995346
0.01622840438
0.01766022179
0.01882040438
0.01969318105
0.0203159917
0.02074705212
0.02104036294
0.02123821154
0.02137352704
0.02147552766
0.021560076
0.02164603364
0.02173166068
0.02182088514
0.02190424838
0.02196489852
0.02199111563
0.02196239732
0.02182449201
0.02169840556
0.02157139321
0.02142953451
0.021304589
0.02121148237
0.02115013369
0.02111633913
0.02110450768
0.02111037667
0.0211317313
0.02116593983
0.02124395503
0.0215455243
0.02205184211
0.02364772899
0.1049127108
0.1094173888
0.0512321054
0.02488782069
0.01446694551
0.009485078428
0.006967522706
0.00594896018
0.005858362782
0.006352383681
0.007285444209
0.008588889677
0.01019158252
0.01197753518
0.01381117365
0.01559362256
0.01726521702
0.0187524257
0.0199781202
0.02092046605
0.02161334033
0.02211207528
0.02246551501
0.02271412691
0.0228904522
0.02302612883
0.02313807089
0.023244512
0.02334938325
0.02345197481
0.02354966734
0.02362724381
0.02367300704
0.02366273666
0.02349250731
0.02333510876
0.02315876682
0.02288549745
0.02263368547
0.02243934629
0.02230130203
0.02220920341
0.02215051528
0.02211753914
0.02211229639
0.02217505149
0.02227885021
0.02254402246
0.02290621967
0.02438989445
0.1053908493
0.1096137273
0.05158159221
0.02583083985
0.01520866339
0.01010678577
0.007697543904
0.006847386469
0.006880330379
0.007487947196
0.008542390868
0.009963822213
0.01165722237
0.01351451117
0.01543484813
0.01733684907
0.01916054817
0.02084136493
0.02229234599
0.02346401257
0.02436690342
0.0250422191
0.02553953152
0.02590146258
0.0261650047
0.02636352556
0.02652167777
0.02666027572
0.02678970922
0.02691383348
0.02702929061
0.02712951641
0.02719734246
0.02723270434
0.02713372294
0.02693406506
0.02674699064
0.02625909652
0.02578751161
0.02540968148
0.02512026045
0.02491194363
0.024829707
0.02482569955
0.0248874536
0.02501911506
0.02516612819
0.02542772696
0.02562640477
0.02648662756
0.1071543229
0.110657671
0.05025739277
0.02634626456
0.01615528505
0.01147250937
0.009344131486
0.008592656817
0.008713949297
0.00947778187
0.01075259604
0.01239049055
0.01419900081
0.01602119454
0.01779430635
0.01953148682
0.02124521992
0.02286524739
0.02428877792
0.02547909368
0.02644706031
0.02718781158
0.027723657
0.02811247315
0.02839348117
0.02860161517
0.02876572073
0.02890531158
0.02903548444
0.02916103186
0.02928142519
0.02939831433
0.02951766731
0.02966268708
0.02969938428
0.02953949641
0.02939278496
0.02894004555
0.02846435212
0.02807577727
0.02778496708
0.02758893775
0.02764910391
0.02777208767
0.0279350945
0.0281337249
0.02832502922
0.0285581386
0.0285538407
0.03022179123
0.1132564167
0.1173505332
0.04959665851
0.02658785209
0.01743449542
0.01358054182
0.01220516848
0.01221141602
0.01311620249
0.014689896
0.01677707779
0.01915118288
0.02154463019
0.02381466267
0.02596189845
0.02813418515
0.0306109824
0.03326846289
0.03579896809
0.03801648203
0.03983748681
0.0412614404
0.04234640176
0.04314246001
0.04370986137
0.04410980458
0.04439675691
0.04461363548
0.04478707262
0.04493938399
0.04508798927
0.04555039838
0.04698494318
0.04973366306
0.05258882704
0.0519060486
0.05066089741
0.04948505484
0.04840297503
0.04749808076
0.04677482678
0.04637841105
0.04626167022
0.04626483459
0.04633576195
0.04643927691
0.04652988487
0.04666354971
0.04654040766
0.04988594992
0.1781250117
0.1103609073
0.04587600389
0.02162321522
0.01250178819
0.00852383159
0.006768141051
0.006135981784
0.006193368579
0.00676724483
0.00778276192
0.009162061839
0.01077354802
0.01246505393
0.01412550183
0.01570863042
0.01719360994
0.01852286185
0.01963986175
0.02056494648
0.02126408707
0.02174630151
0.02205424769
0.02223849851
0.02234388588
0.02240416468
0.02244131718
0.02246848224
0.02249296339
0.02251961978
0.02285808758
0.02430957682
0.02780084137
0.0339760523
0.04107787482
0.04005261895
0.03744606668
0.03515419678
0.03300318314
0.03114843098
0.02953751222
0.02817676569
0.02705017811
0.02613238441
0.02539498947
0.02480899439
0.02435153168
0.02401128186
0.02396982922
0.02533509661
0.1069338895
0.1003267276
0.04236356339
0.02071877977
0.01103704734
0.006479417854
0.004117274143
0.002815034001
0.002111624162
0.001828276478
0.001903579573
0.002320875461
0.003067825722
0.004098069354
0.005310088772
0.006555673884
0.007673582936
0.008532326224
0.009062677452
0.009266611221
0.009205497625
0.008971536722
0.008657975867
0.008338784599
0.008060066795
0.007841876271
0.007686139262
0.007583571599
0.007522013151
0.007488499381
0.007474437389
0.007473692248
0.007507615969
0.007600457291
0.007734389898
0.007721158172
0.007698015303
0.007673143111
0.007646988402
0.007620356535
0.007598472283
0.007581976139
0.007569110712
0.007558737562
0.007550619704
0.007544904999
0.007541793757
0.007538176737
0.00864710895
0.008501241
0.01648955561
0.0987064485
0.04169516579
0.02048578579
0.01095739024
0.006449945001
0.004103003381
0.002804861504
0.002102665873
0.001820879976
0.001898975686
0.002320468182
0.003073188624
0.004110053024
0.00532738383
0.006574371748
0.007687928204
0.008535632036
0.009048714371
0.009231855603
0.009148928489
0.00889429558
0.008562906876
0.008229531755
0.007940406663
0.007715328127
0.007555093588
0.007450189298
0.007387126029
0.007353102528
0.007337247138
0.007331238579
0.007328538043
0.007324906122
0.007316169016
0.007300042483
0.007281915551
0.007267073662
0.00725515231
0.007247607181
0.007252524947
0.007262116697
0.007272951695
0.007283650303
0.00729420764
0.007304922254
0.007316870208
0.007330993659
0.008492351344
0.008344446228
0.01232154978
0.09880069033
0.04216215877
0.0208145686
0.01101734043
0.00648408757
0.004119797151
0.002812527946
0.002104754077
0.001818832877
0.00189333916
0.002311441008
0.00306109141
0.004095559507
0.005311541386
0.006558161497
0.007671644872
0.008518972534
0.009030990739
0.009212201839
0.009126519012
0.008868429085
0.008533078483
0.008195447141
0.007902085244
0.007672992816
0.007509150951
0.007400961903
0.007335069676
0.007298421548
0.007280282248
0.007271692069
0.007266330499
0.007259567408
0.007247428976
0.007233799622
0.007222869487
0.00721414181
0.007207365012
0.007202314427
0.007198650359
0.007195987612
0.007195012704
0.007195706612
0.007198347798
0.007203555442
0.007213144084
0.00742530973
0.009399673081
0.009150407225
0.01292083183
0.09920876047
0.04287535658
0.02082358685
0.01093855362
0.006450002279
0.004099958049
0.002799984078
0.002097626482
0.001816720142
0.001896320703
0.002319589948
0.003073970349
0.004111809629
0.005328794687
0.006573599079
0.007682846764
0.008524440955
0.009030210223
0.009205476036
0.009114698562
0.008852604869
0.008514345517
0.008174733087
0.007880040887
0.007650021924
0.007485422223
0.007376519062
0.007309801845
0.00727215651
0.007252606386
0.007242754986
0.007236053879
0.007227864951
0.007215256456
0.007203841536
0.007194841741
0.007187751832
0.007182406102
0.007178699877
0.007176287238
0.007174975196
0.007174185776
0.007173816058
0.00717381317
0.007175151898
0.007382757341
0.007707649002
0.009521334362
0.009235258162
0.01293906108
0.0992092744
0.04287346606
0.0208269377
0.01093289292
0.006449072545
0.00409095687
0.00279439469
0.002094481684
0.001815757835
0.001897542823
0.002323109893
0.003079769561
0.004119469535
0.005337491448
0.006582110118
0.007689668396
0.008528195053
0.009030082805
0.009201393613
0.009107138477
0.008842283514
0.008501967523
0.00816087001
0.007865077757
0.007634220625
0.007468875816
0.00735929096
0.007291829461
0.007242234677
0.007224681242
0.007262353323
0.007278949536
0.007262306591
0.007242468313
0.007225877315
0.007211955525
0.007200466953
0.007191403635
0.007184731093
0.007180048427
0.007176085404
0.007173429224
0.007171673599
0.007177675737
0.007256036913
0.007625598328
0.007890333343
0.00958728579
0.00929066958
0.0129633498
0.0992087889
0.0428722499
0.02082755485
0.01093203101
0.006448080971
0.004082044473
0.002786840212
0.002090276086
0.001814549776
0.001899216982
0.00232754082
0.003086646072
0.004128076264
0.005346660031
0.006590480371
0.007696062417
0.008531837349
0.009030666278