/*--------------------------------*- C++ -*----------------------------------*\
| =========                 |                                                 |
| \\      /  F ield         | OpenFOAM: The Open Source CFD Toolbox           |
|  \\    /   O peration     | Version:  2.2.1                                 |
|   \\  /    A nd           | Web:      www.OpenFOAM.org                      |
|    \\/     M anipulation  |                                                 |
\*---------------------------------------------------------------------------*/
FoamFile
{
    version     2.0;
    format      ascii;
    class       volScalarField;
    location    "2";
    object      k;
}
// * * * * * * * * * * * * * * * * * * * * * * * * * * * * * * * * * * * * * //

dimensions      [0 2 -2 0 0 0 0];

internalField   nonuniform List<scalar> 
86889
(
0.01361570603
0.008933172111
0.007385019616
0.007160227067
0.007798027345
0.009083648293
0.01088510229
0.01314620951
0.01587459872
0.01910746857
0.02285659807
0.02715781522
0.03217132745
0.03812230247
0.04519879273
0.05345040619
0.06244353897
0.07150228569
0.08001662179
0.08752804974
0.09377869765
0.09871124892
0.102406263
0.1050412128
0.1068395629
0.1080180681
0.1087666513
0.1092310821
0.1095190056
0.1097002498
0.1099986168
0.1107777616
0.112176247
0.1134704519
0.1126753079
0.1116174197
0.1107055418
0.1099794055
0.1094665986
0.1091508023
0.1091014884
0.1092802488
0.1095682594
0.1099214048
0.1103030703
0.1106736342
0.1110443677
0.111259251
0.1134509333
0.1816469849
0.01309531285
0.009722066757
0.007203240902
0.006120244266
0.005918043064
0.00633764453
0.007252505201
0.008619247083
0.01046052639
0.01284805538
0.0158648677
0.01960872112
0.02423977247
0.0299524418
0.03685444062
0.04483161002
0.0534877136
0.0622534595
0.07057332891
0.07800362532
0.08424654663
0.08919851863
0.09293125832
0.09560872871
0.09744303809
0.09865138636
0.09942034249
0.09990265954
0.1001989601
0.1003870508
0.1005071387
0.1005935623
0.1006717455
0.1006762013
0.1005558922
0.1005005156
0.1002949696
0.1002084934
0.1002477113
0.1003824444
0.1005877697
0.1009674238
0.101357404
0.1017364686
0.1021050332
0.102437114
0.1027557319
0.1028764017
0.1038887722
0.1554154503
0.01300593585
0.01050161324
0.007003070534
0.005419078147
0.004712765607
0.004711393699
0.005376132237
0.006514823757
0.008084932858
0.01017588452
0.01295205493
0.01661059191
0.02135051528
0.02731306983
0.03450081492
0.04271702722
0.05155084627
0.06043880785
0.06881795137
0.07624882221
0.08246908178
0.08739697225
0.09110179452
0.09375198814
0.09556278754
0.0967511592
0.09750533247
0.09797294401
0.09825975098
0.09843418307
0.09853711273
0.0985870001
0.09860165661
0.09853754118
0.09841517379
0.09835578921
0.09813390211
0.09803663483
0.09805906529
0.09816396459
0.09832870518
0.09856537695
0.0988331402
0.099114532
0.09941372817
0.09970068012
0.1000290361
0.1003548593
0.1008783599
0.1516350411
0.01298775892
0.01028605972
0.006645427801
0.00505943261
0.004327121272
0.004122803662
0.004567394696
0.005568319331
0.00704075142
0.009055681517
0.01178982517
0.01546118447
0.02025616485
0.02627934922
0.03351416633
0.0417613081
0.05059931141
0.05946479403
0.06780901885
0.07520634371
0.08140173056
0.08631324251
0.09000651849
0.09264925736
0.09445619669
0.0956423987
0.09639649315
0.09686516524
0.0971536733
0.09732956269
0.09742879867
0.09747098162
0.09745832044
0.09734235359
0.09724110519
0.0971505195
0.09700975364
0.0969241809
0.0969056897
0.09694008062
0.09701110795
0.0971025162
0.09720496793
0.09731578026
0.0974628059
0.09763403141
0.09793455791
0.09840603379
0.09944495417
0.1503263415
0.01298741396
0.01023159764
0.006597000512
0.004976833704
0.004193887139
0.003956229069
0.004265595027
0.005152433028
0.006524050518
0.008458579888
0.01113804618
0.01477930653
0.01957245222
0.02562617423
0.03290969322
0.04120235629
0.05007350823
0.05895793665
0.06730984666
0.07470640222
0.08089519993
0.08579823164
0.0894833619
0.09211884602
0.09391981355
0.09510230168
0.09585422238
0.09632161115
0.09660991208
0.09678269266
0.09687532937
0.09690765487
0.09688240173
0.09678100734
0.0966932845
0.09661472621
0.09653333062
0.09647687338
0.09645431507
0.09646263597
0.09649638894
0.09654772363
0.09661198208
0.09669015117
0.09678171829
0.09692376818
0.09724381465
0.0978514412
0.09898185492
0.1499790313
0.01298730807
0.01021835364
0.006584661369
0.004960523636
0.004137592175
0.003867325586
0.004128144409
0.004968076245
0.006295960963
0.008193105163
0.01084622603
0.01447667851
0.01927141133
0.02533016349
0.03262014378
0.04091683444
0.04978147225
0.05865065661
0.06698421249
0.07436214393
0.0805273129
0.08540775061
0.08907373233
0.09169445795
0.09348451249
0.09465934115
0.09540565179
0.09587097792
0.09614583564
0.09630955366
0.0964017102
0.0964391673
0.09641957414
0.09634412994
0.09628009598
0.09622163957
0.09616646761
0.09612510103
0.09610482756
0.09610663256
0.09609939756
0.09608961663
0.09613947796
0.09622264214
0.09633597213
0.0965413212
0.09687924858
0.09757376811
0.0987471204
0.1498475226
0.01298724301
0.01021580334
0.006581841486
0.004956172178
0.004131139365
0.003841558596
0.004071699933
0.004885628556
0.006183978365
0.008053474687
0.01068284782
0.01429572174
0.01908185201
0.02514074209
0.03243357625
0.04073160695
0.04959541554
0.05846121365
0.06679018376
0.0741620181
0.08031226206
0.08517409445
0.08882497767
0.09143390621
0.09321374785
0.09438115142
0.09512360799
0.09558621768
0.09587395973
0.09605166921
0.09616325312
0.09622129382
0.09621502977
0.09617003078
0.0961291845
0.0960889138
0.09604950177
0.09601915595
0.09600454161
0.09600952273
0.09597490201
0.09591839826
0.09594577014
0.0960371668
0.09618004409
0.09642443209
0.09679332669
0.09751248342
0.09862108882
0.1497751718
0.01298718496
0.01021525617
0.006581212206
0.004955172835
0.004129619497
0.00383943895
0.004048245442
0.004839769676
0.006120781973
0.007974024055
0.01059125566
0.01419893194
0.01898439274
0.02504433208
0.03233906709
0.04063671616
0.04949477156
0.0583508247
0.06666802479
0.07402670272
0.08016140058
0.08500398516
0.08863747584
0.09123120365
0.09299987533
0.09415951638
0.09489712385
0.09536524399
0.09567585221
0.09588564995
0.09602627096
0.09610438567
0.09610734604
0.09608609572
0.09606085998
0.09603127588
0.09600214274
0.09597959542
0.09596989142
0.09598024691
0.09595285214
0.09590473174
0.09592279636
0.09602644071
0.09618268681
0.09644097416
0.09682382075
0.0975583923
0.09870970942
0.1499182579
0.01298712568
0.01021514507
0.006581048355
0.004954915818
0.004129240661
0.003838932997
0.004046763262
0.004824671631
0.006088737186
0.007930552764
0.01053646883
0.01413560668
0.01891719038
0.02497639203
0.03227040691
0.04056595335
0.04942088856
0.05827273092
0.06658516268
0.07393650571
0.08005995817
0.08488437057
0.08849816639
0.09108090166
0.09284565423
0.09400395103
0.09474313722
0.09522325749
0.09555430735
0.09578454927
0.09594265019
0.09602978899
0.09603864675
0.09602436096
0.09600000406
0.09596588145
0.09593383152
0.09590908705
0.0959005557
0.0959136273
0.09589178625
0.09585018816
0.09589538325
0.09599555835
0.09616666817
0.09644415984
0.09684753746
0.09760312935
0.0986090592
0.1498192207
0.01298706743
0.01021503889
0.006580960678
0.004954826893
0.004129131581
0.003838772917
0.004045016292
0.004821751934
0.006070708914
0.00790709976
0.01050981269
0.01410894548
0.01889226186
0.02495405565
0.03225042176
0.04054648885
0.04940002731
0.05824955688
0.06656007177
0.07390649077
0.08002105235
0.08483971713
0.08844608788
0.09102275947
0.09278710733
0.09394608481
0.09468940157
0.09517049766
0.09550005526
0.09573504473
0.09589709289
0.09598599564
0.09601025401
0.09601180902
0.09600413232
0.09598008889
0.09594908845
0.09591672135
0.09590179765
0.09591493651
0.09590121864
0.09590960182
0.09598276539
0.09607801759
0.09625582679
0.09653182314
0.0969360921
0.09769666959
0.09881009993
0.150067204
0.01298700931
0.01021499781
0.006580905415
0.00495476267
0.004129054256
0.003838684831
0.004044576742
0.004821130987
0.006069994989
0.007905835273
0.01050847842
0.01410868492
0.01889438223
0.02495930286
0.03225824755
0.04055583702
0.04941100769
0.05826310933
0.06657765198
0.07392377991
0.08004009788
0.08486815149
0.08848916639
0.09107539134
0.09285122729
0.09402455268
0.09476965976
0.09523361069
0.09555001928
0.09577604731
0.0959345226
0.09602262761
0.09605371386
0.09607601538
0.09608781515
0.09605732365
0.095986343
0.09592756571
0.09590362947
0.09590724287
0.09592095826
0.0959736416
0.09605293415
0.09615471891
0.09633537061
0.09660435409
0.09700955267
0.09777866673
0.09865321166
0.1498650852
0.01298695695
0.01021492111
0.006580840557
0.004954700729
0.004128984689
0.003838599784
0.004043736395
0.004819819416
0.006068380048
0.007904140614
0.01050794512
0.01411040286
0.01889919649
0.02496788489
0.03226971837
0.04056818271
0.04942364689
0.05827763158
0.06659296636
0.0739424924
0.08006974517
0.08490832567
0.08854169384
0.09113981504
0.09292673567
0.09412378374
0.09489105451
0.09537822717
0.09568810064
0.09589166683
0.09602719169
0.09610291935
0.09618912076
0.09631557459
0.09646699872
0.09652676503
0.09641370019
0.09621448594
0.0961745316
0.09617517973
0.09620645547
0.09625023274
0.09631573205
0.09640249921
0.09655085296
0.09678016623
0.09714435827
0.09786738161
0.09908419809
0.1504184934
0.01298690778
0.01021488167
0.00658079758
0.004954655712
0.004128934204
0.003838541866
0.004043309331
0.004819125928
0.006067542574
0.007903245997
0.01050767648
0.01411143685
0.01890249727
0.02497452762
0.03227903001
0.0405779229
0.04943355221
0.05828655397
0.06660693289
0.0739690965
0.08010751697
0.08495457904
0.08859504828
0.0912136832
0.09301403768
0.09421978493
0.09502530602
0.09554307351
0.0958884892
0.09611918122
0.09630016913
0.09640638713
0.09654075221
0.09678689963
0.09721656749
0.09694990692
0.09676303075
0.09656295385
0.09639059617
0.09637727993
0.09639906362
0.0964325275
0.09648273249
0.09655168091
0.09669798054
0.09693237527
0.0973107897
0.09806478883
0.09888016819
0.1500571608
0.01298686631
0.01021483393
0.006580754667
0.004954613813
0.004128888563
0.003838489523
0.004042854167
0.004818382299
0.006066828364
0.007902666684
0.01050779665
0.01411263541
0.0189056047
0.02498076579
0.03228780577
0.04058641844
0.04944148749
0.05828968543
0.06662226971
0.07399975796
0.08015067194
0.08500474768
0.08865680644
0.09128193902
0.09309019487
0.09430187072
0.09513245991
0.09568738309
0.09607605923
0.09634349688
0.09652319763
0.09669714147
0.09701225009
0.09758619219
0.0984967368
0.09926760119
0.09898117638
0.0982885709
0.09774994447
0.09747721332
0.09722944905
0.09692714104
0.0966165123
0.09643156131
0.09637976811
0.09645612565
0.09671349022
0.09736377356
0.09786562756
0.1492252348
0.01298683184
0.01021479848
0.006580720885
0.004954580448
0.004128853473
0.003838449752
0.004042575085
0.004817909769
0.006066542066
0.007902550961
0.0105080494
0.01411341002
0.01890764335
0.02498542384
0.03229478282
0.04059282683
0.04944648562
0.05829421047
0.06663610808
0.07402040005
0.08018415592
0.08505713489
0.08871733091
0.09133675359
0.09315525772
0.09442191314
0.09534573978
0.09592952476
0.09640907259
0.09663225337
0.09696613554
0.09723173637
0.09757886219
0.09823280678
0.09950077799
0.1015683756
0.1036641724
0.1056451075
0.1039485024
0.1017892157
0.09941824865
0.09705418895
0.09492278782
0.09326828591
0.09236694724
0.09215143771
0.09266308757
0.09355007119
0.09454951431
0.1468494221
0.01298680657
0.01021476946
0.006580695546
0.004954556621
0.004128831742
0.003838419792
0.004042433599
0.004817936398
0.00606697644
0.007903058623
0.01050844545
0.01411384514
0.01890880708
0.02498855374
0.03229987754
0.04059739617
0.04944875198
0.05830058214
0.06664672783
0.0740271009
0.08019804844
0.08509156739
0.08874727676
0.09135316596
0.0931928574
0.09456356064
0.09575146135
0.09608671272
0.09689300172
0.09664300504
0.09685797996
0.0971971487
0.09760697916
0.098254721
0.09925332042
0.1002462662
0.1003550814
0.09996917576
0.1001273983
0.1000344043
0.09960303087
0.09895383373
0.09824516035
0.09748167209
0.09714351365
0.09701022801
0.09718438706
0.09767919532
0.09853157206
0.149883211
0.01298679091
0.0102147518
0.00658068005
0.004954542077
0.004128818255
0.003838401535
0.004042337642
0.004818096587
0.006067638731
0.007903999983
0.01050886653
0.01411394345
0.01890915985
0.02499001622
0.03230266964
0.04059983919
0.04944986936
0.0583056302
0.06665327313
0.07402943717
0.08020098625
0.08509636171
0.08870819553
0.09132408666
0.09331024014
0.09503931786
0.09669712899
0.09788417228
0.09850889704
0.0982193189
0.0984970025
0.09978025202
0.1010296571
0.1007257317
0.1003631421
0.0992920838
0.09853175772
0.09808905988
0.09834610571
0.09863027208
0.09865381573
0.09849018834
0.09799999452
0.09749149773
0.09745469407
0.09752369793
0.09779949038
0.09831964747
0.099318058
0.1505558012
0.01298678547
0.01021474786
0.006580676023
0.004954537906
0.00412881464
0.003838397062
0.00404231364
0.004818186974
0.006067904605
0.007904545291
0.01050903098
0.01411389098
0.01890916189
0.02499034249
0.032303433
0.04060033494
0.04945020507
0.05830732022
0.06665525327
0.07403058228
0.08019842564
0.08508712452
0.08866038404
0.0912629885
0.09334136443
0.09513258506
0.09739257773
0.09936790609
0.1001054501
0.1038357807
0.1053981728
0.1089562899
0.1121655061
0.1094123864
0.1064442489
0.1040945007
0.1009343367
0.0986147955
0.09715228947
0.09723826395
0.09740551438
0.09728574135
0.09673678894
0.09606198149
0.09599701197
0.09616002226
0.09666359158
0.09746207111
0.09872284978
0.1503816681
0.0129867903
0.01021476039
0.006580685966
0.004954546079
0.00412882153
0.003838405641
0.004042333912
0.00481799776
0.006067436656
0.007903717179
0.01050883342
0.01411405752
0.01890925322
0.02498998508
0.03230247948
0.04059957228
0.04944957872
0.05830521804
0.0666528056
0.07402897978
0.08020062423
0.08509615627
0.08870958345
0.0913255404
0.09331263398
0.0950435878
0.09669758729
0.09788969837
0.09888098707
0.1005043171
0.1064720932
0.1179219663
0.1291393066
0.122416094
0.116711077
0.1152480584
0.1084773939
0.1039916935
0.100484226
0.09769563412
0.09572410992
0.09454416624
0.09364918503
0.09313831508
0.09329439681
0.09378704914
0.09463678419
0.09563100486
0.09725475017
0.1488349089
0.01298680564
0.01021478163
0.006580704449
0.004954563198
0.004128837273
0.003838426889
0.004042431414
0.00481784703
0.006066765148
0.007902837133
0.01050838753
0.01411390088
0.01890879854
0.02498827963
0.03229928817
0.04059667408
0.0494480007
0.0582995645
0.06664555839
0.07402591954
0.08019698296
0.08509069818
0.08874678842
0.09135275889
0.09319034006
0.09455949121
0.09575029242
0.09608349677
0.09698998889
0.1006713366
0.1123372519
0.1339336555
0.183436205
0.1629757176
0.1466503881
0.1368598333
0.123291434
0.1126151385
0.1047671081
0.09869064496
0.09366163213
0.0897900529
0.08694052875
0.08503924946
0.08415802019
0.08417219777
0.08502149252
0.08664485513
0.08875928137
0.1410714756
0.01298683064
0.01021480539
0.006580725633
0.004954585639
0.004128860081
0.003838458161
0.00404257065
0.004817891191
0.006066476165
0.007902486184
0.0105080457
0.01411340349
0.01890744151
0.02498481557
0.03229377647
0.04059168718
0.0494452634
0.0582926236
0.06663429709
0.07401855595
0.08018245643
0.08505581344
0.0887164946
0.09133562423
0.09315025419
0.09441497081
0.09533882443
0.09592885487
0.09741734808
0.1027844974
0.1166646314
0.1439878058
0.2156792504
0.2247839295
0.2148803955
0.2103435889
0.1996288522
0.1803848603
0.1664832086
0.1557232336
0.1453030421
0.1356601634
0.1271514892
0.1195750698
0.1131607053
0.1079715086
0.1040922093
0.1015037396
0.09923578681
0.1482510283
0.01298686442
0.01021484159
0.006580760051
0.004954620212
0.004128896533
0.003838500184
0.004042895805
0.004818461704
0.006066866304
0.007902688954
0.01050780612
0.01411254453
0.01890519761
0.02497983252
0.03228642526
0.04058489893
0.04943981053
0.05828756418
0.06661984173
0.07399730954
0.0801484772
0.08500305684
0.0886557223
0.09128168126
0.09309479866
0.09430147715
0.09513203549
0.09569048049
0.09678969525
0.1009649178
0.1124067185
0.1335909467
0.182753682
0.1629175041
0.1466044397
0.1353883188
0.1221033127
0.1111857122
0.1033955423
0.09785664468
0.093631844
0.09074536049
0.08887908772
0.08792627258
0.08780283484
0.08835410829
0.08956871505
0.09110742568
0.09391806637
0.1459606386
0.01298690581
0.01021488285
0.006580799456
0.004954659844
0.00412894123
0.003838552789
0.004043343873
0.004819203202
0.006067618008
0.007903326252
0.01050772652
0.01411133365
0.01890198644
0.02497339733
0.03227741412
0.04057613996
0.04943149366
0.05828398235
0.06660400984
0.07396614248
0.08010487111
0.08495247503
0.08859359894
0.09121781642
0.09303936456
0.09424132095
0.09504142855
0.09556179178
0.09631890965
0.09863378233
0.104916145
0.1161971721
0.1269002111
0.1202955224
0.1141658515
0.1092394932
0.1043482677
0.1005313454
0.09766668201
0.09569004854
0.09433357245
0.09349689215
0.09311372427
0.09310466579
0.0934184735
0.09398403832
0.09478177612
0.09593972948
0.09730698934
0.1487788394
0.01298695394
0.0102149221
0.00658084243
0.004954704831
0.004128993217
0.003838613469
0.004043812166
0.004819962814
0.006068537821
0.007904282138
0.01050798226
0.01411018256
0.01889845946
0.02496645319
0.03226778951
0.04056607892
0.04942120429
0.05827462251
0.06658962177
0.07393917
0.08006676628
0.0849059462
0.08854063322
0.09115004415
0.09296180034
0.09415412837
0.09491736119
0.09539996614
0.09582700315
0.09673280954
0.09921144108
0.1036747327
0.1073684386
0.1048206902
0.1024296011
0.100432209
0.09857171643
0.09705132608
0.09604676112
0.09537895985
0.09498874264
0.09482050389
0.09484009273
0.09500428502
0.09532932256
0.0957746529
0.09636848763
0.09728631204
0.09835909988
0.1496107818
0.01298700608
0.01021498479
0.006580898125
0.004954760654
0.00412905799
0.003838694332
0.004044600362
0.004821186063
0.006070071582
0.007905933568
0.01050853731
0.01410851738
0.01889366396
0.0249578457
0.03225628549
0.04055367641
0.04940840929
0.05825984264
0.06657400674
0.07392015627
0.08003686931
0.08486560219
0.08848798736
0.09108092481
0.09286650155
0.09403824118
0.09478209727
0.09524425237
0.0955874168
0.09596909419
0.09675741579
0.09816513436
0.09931471197
0.09851423491
0.09776018079
0.09711122009
0.0965369012
0.09610152264
0.0958130129
0.09564475907
0.09556513636
0.0955877354
0.09568598625
0.09584088349
0.09608667729
0.09642226146
0.0968877119
0.09769598209
0.09872041133
0.1499640807
0.01298706335
0.01021503359
0.006580957035
0.004954827713
0.00412913715
0.003838785015
0.004045110109
0.004821912558
0.006070886665
0.007907290977
0.01050989729
0.01410868691
0.01889135817
0.02495235999
0.03224818597
0.04054401456
0.04939707511
0.05824592182
0.06655609816
0.0739025955
0.08001759171
0.08483696546
0.08844418957
0.091021784
0.09278721346
0.0939467165
0.09469025616
0.09517098676
0.09550595977
0.09576552149
0.0960339273
0.096399218
0.09667703165
0.0964953853
0.09632453524
0.09616402379
0.0960298528
0.09592531959
0.09586577078
0.09585122162
0.09582708484
0.09583688244
0.09592067973
0.09603185944
0.09622895553
0.09652223092
0.09694245139
0.09770925488
0.09881885081
0.1500798309
0.01298712129
0.01021511736
0.006581031282
0.004954908601
0.004129243035
0.003838945754
0.004046814419
0.004824696223
0.006088783714
0.007930593076
0.01053643087
0.01413530206
0.01891626913
0.02497468844
0.03226821719
0.04056358913
0.04941802141
0.05826909999
0.06658109953
0.07393247985
0.08005634405
0.08488149591
0.0884961471
0.09107963619
0.09284531017
0.09400460336
0.09474394942
0.09522449322
0.09555658973
0.09578826792
0.09595852091
0.09608940942
0.09614695675
0.09610022378
0.09604723603
0.09598924803
0.09594085559
0.09590734707
0.0958954728
0.0959093822
0.09589146047
0.09585573396
0.09590848514
0.09601826761
0.09619651034
0.09648123753
0.09689041721
0.09764934788
0.09875635738
0.1499725946
0.01298717973
0.01021521628
0.006581184781
0.004955153861
0.00412960898
0.00383943426
0.004048133466
0.004839584409
0.006120684897
0.007974074913
0.01059133857
0.0141987502
0.01898358301
0.02504273109
0.03233692909
0.04063430731
0.04949177207
0.05834698605
0.06666371954
0.0740224969
0.08015754147
0.08500033581
0.08863433431
0.09122868373
0.09299795565
0.09415777277
0.09489524513
0.095363431
0.09567497002
0.09588549161
0.09602686648
0.09610883378
0.09611618312
0.09609031076
0.09606098906
0.09602885374
0.09599937622
0.09597913655
0.09597254792
0.09598573686
0.09596062924
0.09591403139
0.09593330691
0.09603511586
0.09618909988
0.09644520123
0.09682515994
0.09755871947
0.09873563814
0.1499367554
0.0129872376
0.01021576797
0.006581818165
0.004956157992
0.004131133677
0.003841553795
0.004071850379
0.004886043315
0.006184474733
0.00805393802
0.01068304617
0.01429555727
0.01908099395
0.02513900959
0.03243128405
0.040729108
0.04959233346
0.05845725609
0.066785817
0.07415784634
0.08030853844
0.08517099011
0.08882266099
0.09143200052
0.09321273636
0.09438140509
0.09512434407
0.09558663146
0.09587411792
0.09605139015
0.09616356238
0.09622352433
0.09621840168
0.09617243665
0.09612993315
0.09608679856
0.0960449694
0.09601356709
0.0959988638
0.09600456128
0.0959714308
0.09591721325
0.09592870876
0.09602488454
0.09617573745
0.09642810079
0.09680497517
0.09753391158
0.09870195075
0.149845145
0.01298730188
0.01021828241
0.006584606227
0.004960475413
0.004137534588
0.003867272732
0.004127931928
0.004967762229
0.006295487836
0.008192569298
0.01084546767
0.01447566494
0.01927001131
0.02532831753
0.03261799889
0.04091454658
0.04977864693
0.05864702068
0.06698009162
0.07435812401
0.08052382095
0.08540519879
0.08907238066
0.09169453267
0.09348512246
0.09466067892
0.09540831205
0.09587337232
0.09614724475
0.09631173803
0.09640344511
0.09644103064
0.09642165284
0.09634519629
0.0962793144
0.09621937743
0.09616413845
0.09612399023
0.0961059877
0.09611059297
0.09610622067
0.09609862509
0.09613048994
0.09621441878
0.09633106027
0.09653930585
0.09688144127
0.09757994884
0.09877519406
0.1498554982
0.01298740892
0.0102316391
0.006597037541
0.004976858019
0.004193914325
0.003956287103
0.004266420709
0.005153802251
0.006525670368
0.008460297354
0.011140337
0.01478162444
0.01957429761
0.02562686483
0.03290944876
0.04120159197
0.05007194449
0.05895526954
0.06730637996
0.07470286677
0.08089230126
0.08579632934
0.08948298562
0.09211963671
0.09392240237
0.09510449293
0.09585801467
0.09632474218
0.09661194383
0.09678494244
0.09687769366
0.09691077506
0.09688774567
0.09678527825
0.09669614927
0.0966157499
0.09653292987
0.09647588432
0.09645380653
0.09646331314
0.09649855249
0.09655161451
0.09661808114
0.09669906102
0.09679326938
0.09693791416
0.09727368632
0.09788226538
0.09903794177
0.1500065782
0.0129888155
0.01028670581
0.006646333394
0.005060110134
0.004327625847
0.004123204358
0.00456718418
0.005567814162
0.007040173624
0.0090551871
0.01178965089
0.01546132003
0.02025604069
0.02627892733
0.03351376758
0.04176117047
0.0505989315
0.05946369021
0.06780712633
0.07520405877
0.08139953174
0.08631126767
0.09000547104
0.09264848806
0.09445690829
0.09564372916
0.09639940317
0.09686928934
0.09715650983
0.09733164382
0.09742966418
0.09747260373
0.09746097056
0.09734447751
0.09724279798
0.0971518111
0.09701119779
0.09692630942
0.09690912916
0.09694505632
0.09701761557
0.09710996739
0.09721326351
0.09732925301
0.09748569004
0.09766029822
0.09794969794
0.098420967
0.09948142712
0.1503234127
0.01300695796
0.0105026092
0.007004336033
0.005420119515
0.004713719354
0.004714367312
0.005380192214
0.00651944806
0.00809011663
0.01018153535
0.01295797177
0.01661618622
0.02135473089
0.02731558373
0.03450203532
0.04271736481
0.05155040495
0.06043740465
0.06881557401
0.07624618533
0.08246623095
0.08739487717
0.09110030252
0.09375113157
0.09556305344
0.09675187691
0.09750700062
0.09797598867
0.09826355347
0.09843888057
0.09854270955
0.09859434577
0.0986089122
0.09854525024
0.09842113842
0.09836060667
0.09813799679
0.09804090739
0.09806350136
0.09816883819
0.09833421259
0.09857933583
0.09885543226
0.09914663427
0.09945419748
0.09973886399
0.1000740061
0.1004105791
0.1009500293
0.151659854
0.0130953167
0.009722071358
0.007202888691
0.006116092343
0.005912064698
0.006332225337
0.007247327632
0.008613353421
0.01045381165
0.01284098247
0.01585808014
0.01960272293
0.02423460378
0.02994775408
0.03685029923
0.04482806721
0.05348374959
0.06224904264
0.07056861806
0.07799943363
0.08424315047
0.08919588816
0.09292928029
0.09560739047
0.09744308787
0.09865242478
0.09942343628
0.09990594157
0.1002057199
0.100393356
0.1005148411
0.1006014048
0.1006802304
0.100685277
0.1005636234
0.1005072986
0.1003011982
0.1002149053
0.1002548119
0.1003896942
0.1005987168
0.1009828006
0.1013800964
0.1017683162
0.1021446474
0.1024794256
0.1028059922
0.1029225382
0.1039298357
0.1554104759
0.01361569951
0.008933123356
0.007384980675
0.00716078752
0.00780030424
0.009087381909
0.01088913145
0.01314975673
0.01587735996
0.01910933204
0.02285730297
0.0271565096
0.03216734042
0.03811663474
0.04519276322
0.05344517096
0.06243841876
0.07149720119
0.08001167318
0.08752352368
0.0937753451
0.09870999639
0.1024066407
0.1050432337
0.1068413552
0.108019637
0.1087685032
0.109232516
0.1095207727
0.1097051404
0.1100031023
0.1107802908
0.1121830656
0.1134814168
0.1126903213
0.1116316428
0.1107192297
0.1099926007
0.1094789534
0.1091622531
0.1091187359
0.1093010512
0.1095946316
0.1099523076
0.1103364896
0.1107063364
0.1110747826
0.111283082
0.1134734446
0.1816148219
0.01307037559
0.007639152956
0.005131367826
0.004188301469
0.004039314386
0.004421355385
0.005219059848
0.006408538561
0.008041919392
0.01023499128
0.01312844787
0.01685959508
0.02157431631
0.02741391091
0.03443472911
0.04249527508
0.05119821156
0.05999507765
0.06836420237
0.07581911572
0.0820631147
0.08700371335
0.09070962352
0.09335312763
0.0951511811
0.09632125143
0.09705202698
0.09749303483
0.09775168226
0.09811520904
0.09915637671
0.1014581614
0.1053319581
0.1094198342
0.1077253436
0.1050554256
0.1027646419
0.1007608758
0.09917298171
0.09794899531
0.09708157093
0.09653589556
0.09626639752
0.09622291598
0.0963499995
0.09659883942
0.09693103135
0.09751248892
0.09900941221
0.1500842451
0.01226607993
0.00719507649
0.004661798661
0.003202170942
0.002347389922
0.00181635387
0.001490852592
0.001355166592
0.001493832947
0.0021024356
0.003473636846
0.005942224459
0.009796336888
0.01517885117
0.02201325913
0.02998527329
0.0385914408
0.04724002941
0.055368715
0.06254523407
0.06851901923
0.07322277655
0.07673659412
0.07923349209
0.08092535961
0.08202163322
0.08270248374
0.08310950167
0.08334413448
0.08347647593
0.08355100935
0.0836145874
0.08369711115
0.08378598222
0.08375827264
0.08372440309
0.08369192033
0.08366093577
0.08363401962
0.08361650377
0.08360909753
0.08360960064
0.08361614156
0.08362739826
0.08364227313
0.08365959316
0.08367690446
0.08458137794
0.08444206118
0.08926632749
0.01212328342
0.007184788337
0.004667337644
0.003212496736
0.002356034053
0.001820880908
0.001490877964
0.001351906145
0.001490942274
0.002106971784
0.003496167597
0.005995074889
0.009889369629
0.01531444394
0.02218396625
0.0301751909
0.03878000667
0.04740688531
0.05549874633
0.06262936677
0.06855407838
0.07321070866
0.07668302303
0.07914624452
0.08081296598
0.08189140236
0.08256055089
0.08295981335
0.0831898224
0.08331813225
0.08338732301
0.0834224819
0.08343801608
0.08344096167
0.08343514691
0.08342807132
0.08342332031
0.0834204188
0.08342134479
0.08343256588
0.08344747054
0.08346285812
0.08347747243
0.08349124629
0.08350441035
0.08351798591
0.08353378172
0.08454910852
0.08437056522
0.0867276182
0.0121315272
0.007235554916
0.004716279216
0.003221245756
0.002362149367
0.001823294176
0.001490650516
0.001348917974
0.001483975395
0.002093980501
0.00347501803
0.005964510621
0.009849710174
0.01526786965
0.02213362737
0.03012395085
0.03873003428
0.04735973751
0.05545561362
0.06259118119
0.06852143631
0.07318375013
0.07666134169
0.07912897927
0.08079900756
0.08187974943
0.08255032484
0.08295047388
0.08318085068
0.08330924101
0.08337775929
0.08341159269
0.08342480471
0.08342427233
0.08341873293
0.08341447183
0.08341149324
0.08340955295
0.08340924122
0.08341039811
0.08341219281
0.08341483176
0.08341839752
0.08342326939
0.08343013973
0.0834407607
0.08363280203
0.08541242828
0.0850966128
0.08726219671
0.01216893142
0.007321285379
0.004718700136
0.003204913208
0.002352686695
0.001816643634
0.001485713698
0.001346661553
0.001486821318
0.002106014425
0.003501298975
0.006009582122
0.009915849411
0.01535364298
0.02223407298
0.03023196143
0.03883803222
0.04746095668
0.05554490073
0.06266540285
0.06857947575
0.0732262298
0.07669016186
0.07914671601
0.08080839836
0.08188321444
0.08254982754
0.08294734588
0.08317594954
0.08330277581
0.08337014112
0.08340271508
0.08341422558
0.08341213564
0.08340700277
0.08340281771
0.08339989356
0.08339862839
0.08339976991
0.08340298708
0.08340747294
0.08341195045
0.08341596952
0.0834194213
0.08342312524
0.08361186045
0.08389987532
0.08555396537
0.08520049255
0.08731473251
0.01216895709
0.007320541082
0.004718888853
0.003203600499
0.002351895114
0.001813333961
0.001483240747
0.00134543042
0.001487817722
0.002111022924
0.003512869862
0.006030586852
0.009948750511
0.01539980197
0.02229281144
0.03030003575
0.03891017934
0.04753125978
0.05560824106
0.06271833628
0.06862049022
0.07325550102
0.07670903401
0.07915711208
0.08081236927
0.08188258765
0.08254608674
0.08294150249
0.08315856076
0.08328726942
0.08339694131
0.08344783593
0.08344873355
0.08343782438
0.08342668
0.08341757472
0.08341101055
0.08340783625
0.08340904003
0.0834141077
0.08342096896
0.08342861751
0.08343584635
0.08344823535
0.08352330675
0.08385849104
0.08408407124
0.08564643914
0.08527898156
0.08736601394
0.01216890957
0.007320303709
0.004718925261
0.003203380786
0.002351617398
0.001810492255
0.001480008574
0.001343991658
0.001489459234
0.002117846962
0.003527419456
0.006055210052
0.009984785896
0.0154469422
0.02234909978
0.03036232792
0.03897467417
0.04759402794
0.05566572756
0.06276781919
0.06866038787
0.07328545698
0.07672975102
0.07916997698
0.08081906642
0.08188481195
0.08254521594
0.08293915211
0.08318443158
0.08332173345
0.0834615467
0.08352209776
0.08350484171
0.08348101224
0.08345964799
0.08344296843
0.08343127181
0.08342517748