/*--------------------------------*- C++ -*----------------------------------*\
| =========                 |                                                 |
| \\      /  F ield         | OpenFOAM: The Open Source CFD Toolbox           |
|  \\    /   O peration     | Version:  2.2.1                                 |
|   \\  /    A nd           | Web:      www.OpenFOAM.org                      |
|    \\/     M anipulation  |                                                 |
\*---------------------------------------------------------------------------*/
FoamFile
{
    version     2.0;
    format      ascii;
    class       volScalarField;
    location    "2";
    object      nut;
}
// * * * * * * * * * * * * * * * * * * * * * * * * * * * * * * * * * * * * * //

dimensions      [0 2 -1 0 0 0 0];

internalField   nonuniform List<scalar> 
86889
(
0.0001421796671
0.000144810629
0.0001846124456
0.0002646687127
0.0004030628273
0.0006086338906
0.0008735410344
0.00118616821
0.001544196913
0.001958731673
0.002455192083
0.003080836521
0.003910789293
0.00503707137
0.006534214209
0.008399249437
0.01054821811
0.01285343704
0.01515822482
0.01730903915
0.01918464537
0.02071271328
0.02188196284
0.02272449731
0.02329504347
0.02365685783
0.02386869888
0.02397843892
0.02402276293
0.02402522791
0.02390989904
0.02350715081
0.0227754715
0.02204177187
0.02202323636
0.02214289486
0.02230022625
0.02250066039
0.02271567687
0.02293354044
0.02311391015
0.02325205557
0.02337851194
0.02349791478
0.02361120639
0.02372348043
0.02381281601
0.02396371943
0.02324442744
0.01666427835
0.0001394738176
0.0001692619304
0.0001772430467
0.0002086099454
0.0002745980021
0.0003866401557
0.0005506185574
0.0007668545262
0.001038452678
0.001380930304
0.001827426204
0.00243640193
0.003300009545
0.004536982387
0.006258386314
0.008514531747
0.01126133334
0.01436082041
0.01759357367
0.02070717756
0.0234968022
0.02583131692
0.02765035879
0.02897662779
0.02988114029
0.03045280687
0.03078281241
0.03094277783
0.03099837412
0.03098615949
0.03093950601
0.03086828685
0.03076702733
0.03073404334
0.03082543123
0.03094437216
0.03129937812
0.0317672679
0.03223188682
0.03265557035
0.03302637739
0.0332098391
0.0333310303
0.03340038401
0.03341864787
0.0334141208
0.03336341624
0.03344477852
0.03221401192
0.01919098825
0.0001388967491
0.0001924399001
0.0001709045781
0.0001738128791
0.0001978184177
0.0002596486578
0.0003801210534
0.0005555422026
0.0007861563287
0.001091613595
0.001516118942
0.002131181747
0.003036698658
0.004350863406
0.006180272681
0.008572644037
0.0114780781
0.01475001446
0.01816787299
0.02147673275
0.02444580099
0.02692074984
0.02884297482
0.03023802853
0.03118180367
0.03177149518
0.03210189558
0.03225592345
0.03229613939
0.0322736224
0.03222345955
0.03217946047
0.03214827223
0.03222653698
0.03238335009
0.03256947964
0.03302393908
0.03356075279
0.03407434307
0.03453984214
0.03494485695
0.03524445604
0.03545856181
0.03559246476
0.03563643064
0.03563075452
0.03551196937
0.0354884676
0.03472098784
0.01931585732
0.0001387576896
0.0001858782566
0.0001597183758
0.0001592664058
0.0001776857074
0.0002195830556
0.0003156064618
0.0004763181283
0.0007022961325
0.001013000143
0.001456520297
0.002111034015
0.00308310179
0.004500263901
0.00648286912
0.009092086874
0.01228950581
0.01593192942
0.01978345223
0.02355514046
0.02697370837
0.02984966677
0.03210429439
0.03375428305
0.03487867697
0.03558714229
0.03598768959
0.03617748321
0.03623117905
0.03620970064
0.0361622088
0.03612599966
0.03613595106
0.0363118041
0.03648149657
0.03669140459
0.037022811
0.03736941875
0.03767938554
0.03794000356
0.03815331298
0.03832559002
0.03846287337
0.03857019558
0.03860042282
0.03856793499
0.03832648569
0.03808403461
0.03656979306
0.01929391019
0.0001387562367
0.0001842309797
0.0001579973904
0.0001558948194
0.0001708665528
0.0002087982139
0.0002914015756
0.0004406228895
0.0006595358661
0.0009701558739
0.001423156283
0.002100412499
0.003114306437
0.004598270406
0.006677002393
0.009415948969
0.01277959872
0.01662426795
0.02070715568
0.02472641079
0.02839144534
0.0314933843
0.03393994912
0.03574226688
0.03698029112
0.03776668634
0.03821766848
0.03843744191
0.0385075764
0.0384985045
0.0384658526
0.03844785373
0.03848490382
0.03864668326
0.03879982147
0.03896351259
0.03915469467
0.03933802341
0.03949230405
0.03961392523
0.03970532854
0.03977032163
0.03981288164
0.03983796481
0.03984995497
0.03982509638
0.03956877458
0.03914518445
0.03740895762
0.01930027797
0.000138754703
0.0001838330808
0.0001575286909
0.0001551479333
0.000168019129
0.0002030513731
0.0002802735963
0.0004240563949
0.0006388880393
0.0009480696806
0.001403878381
0.002090343138
0.003122159637
0.004635988417
0.006760521277
0.009564676747
0.01301685934
0.01697384699
0.02118722961
0.02534651362
0.02915826204
0.03239986738
0.03496839616
0.0368689272
0.03818106997
0.03901957541
0.0395065169
0.03974535565
0.03984149487
0.03984827314
0.03982288486
0.03981144793
0.03985606942
0.03998619399
0.04010241638
0.04021406333
0.04032108465
0.04041040894
0.04047710744
0.04052509115
0.04059500402
0.04067393365
0.04068264204
0.04066141821
0.04062425168
0.04052045528
0.04029646252
0.03976920909
0.03791490013
0.01930709738
0.0001387541154
0.0001837589801
0.0001574216047
0.0001549507312
0.0001676702853
0.0002014268386
0.0002757730313
0.000416400274
0.0006278757449
0.0009346289348
0.001389870906
0.002078968588
0.003118384087
0.004646450796
0.006793519903
0.009630190494
0.01312547851
0.01713551883
0.02140860051
0.02563072565
0.02951388882
0.03282901073
0.03546097779
0.03741267485
0.03876604533
0.03963482434
0.04013998398
0.04039113287
0.04047815363
0.04047418892
0.0404327291
0.04040794077
0.04044635506
0.04052988197
0.04059743068
0.04065920251
0.04071375856
0.0407532274
0.04077640443
0.04078942197
0.0408706842
0.04099066875
0.04101211659
0.04096800251
0.04089357085
0.04074418085
0.04048667557
0.03993670127
0.03817947407
0.01930931102
0.0001387536981
0.0001837435903
0.0001573970718
0.0001549038441
0.0001675850351
0.0002012864266
0.0002738765358
0.0004119506056
0.0006210839587
0.0009258440812
0.001380196568
0.002070333432
0.003113364202
0.004648657856
0.006807727397
0.00966227702
0.01318268069
0.01722491016
0.02153519134
0.02579723148
0.02972317821
0.03308570637
0.03576181754
0.03775290582
0.03913703165
0.04002912461
0.04055019332
0.04080280926
0.04087366728
0.04084343135
0.04077402539
0.04072715752
0.04075380809
0.04079148988
0.04081483621
0.0408313548
0.04084109894
0.04084309225
0.04083989738
0.04083655284
0.04090940994
0.04102669225
0.04107338588
0.04102764104
0.04095056145
0.04079519932
0.04053090925
0.03997178321
0.03814309917
0.01931481518
0.0001387532814
0.0001837422131
0.0001573934788
0.000154896129
0.0001675705087
0.0002012631925
0.0002737681748
0.0004105051794
0.0006176083128
0.0009209310877
0.001374283957
0.002064606097
0.003109786873
0.004649897807
0.006817412329
0.009685056143
0.01322341728
0.0172878146
0.0216223761
0.0259105604
0.02986613806
0.03326802663
0.03598520153
0.03801050958
0.03942334803
0.04033898111
0.04087512241
0.04112530345
0.04118126234
0.0411277165
0.04103217775
0.04096558032
0.0409675022
0.04095980865
0.04093838642
0.04091773433
0.04089687991
0.04087761182
0.04086165653
0.04085195695
0.04092369958
0.04104298691
0.04106890011
0.04104201078
0.04096516197
0.040809891
0.04055170418
0.04000729372
0.03844725346
0.01932817165
0.0001387528772
0.0001837402806
0.0001573914308
0.00015489335
0.0001675659661
0.0002012546014
0.0002736124485
0.0004102128127
0.0006155982286
0.0009182360825
0.001371376695
0.002062261868
0.003109007206
0.004652132686
0.006824725192
0.009700321889
0.01324995964
0.01732813245
0.02167638418
0.02597911318
0.02994676519
0.03336059175
0.03610025772
0.03815076274
0.03958700334
0.04052305951
0.04106940581
0.04132732246
0.04138386314
0.0413185049
0.04121194382
0.04113955217
0.04111185118
0.04107272472
0.04101968821
0.04096995406
0.04091781666
0.0408738066
0.04084365566
0.04082869431
0.04089332127
0.04095610112
0.04095973732
0.04095795165
0.04088778322
0.04074775276
0.04050230057
0.0399646934
0.03823504504
0.01933393764
0.0001387524728
0.0001837406893
0.0001573914583
0.0001548932772
0.0001675657989
0.0002012548694
0.0002735829593
0.0004101662258
0.0006155512127
0.0009181825433
0.001371470838
0.002062819877
0.003110499593
0.0046552363
0.006830577539
0.009710747712
0.01326672957
0.01735161497
0.02170210543
0.02600365746
0.02996465296
0.03336573495
0.03609206847
0.03812654531
0.03954171537
0.04045889695
0.04101456046
0.041316757
0.04140010091
0.04134553529
0.04123399791
0.04114929614
0.04109985343
0.04102232559
0.04093797746
0.04088803759
0.04087887278
0.04085756589
0.04082239177
0.04080725581
0.04082637492
0.04082965197
0.04083328603
0.04083293498
0.04076451989
0.04064214247
0.04042038878
0.03991765752
0.03863064314
0.01935233474
0.0001387521088
0.0001837396515
0.0001573904435
0.0001548921907
0.0001675642951
0.0002012526846
0.0002735120614
0.0004100415718
0.000615398506
0.0009180683537
0.001371608653
0.002063480393
0.003112058835
0.004658260742
0.006836089837
0.009720710695
0.01328340165
0.0173754446
0.02172439174
0.02602023915
0.02997413396
0.03336255237
0.0360709241
0.03808758112
0.03947863045
0.04036439082
0.04089622912
0.04117639707
0.04129076758
0.04129076347
0.04122403998
0.04115538107
0.04103168799
0.04084882224
0.04064677399
0.04054176883
0.04058651011
0.04069926379
0.0406407101
0.04058824715
0.04054360082
0.0405176558
0.04049652628
0.04047620813
0.04041516379
0.0403071288
0.0400922158
0.03958748684
0.03774565964
0.01931417113
0.0001387517679
0.0001837397595
0.0001573903662
0.0001548921111
0.0001675642282
0.0002012528931
0.0002734799233
0.0004099816693
0.0006153310978
0.0009180383213
0.001371766239
0.002064060375
0.003113457111
0.004661072163
0.00684136271
0.009730562148
0.01330019921
0.01739572705
0.02173949948
0.02603077182
0.02997737694
0.03335587198
0.0360403524
0.03802998691
0.03940085024
0.04026805959
0.04075975872
0.04101965286
0.04110775768
0.04109044405
0.04096124789
0.04086020499
0.04069202156
0.04040788794
0.03998093451
0.04045996091
0.04073457497
0.0408955761
0.04098487625
0.0408974269
0.04081869285
0.04076742343
0.04073417208
0.04070991541
0.04062193394
0.04049519772
0.04027990454
0.03979547359
0.0386162918
0.01938686125
0.0001387514798
0.0001837393556
0.0001573899384
0.0001548916847
0.0001675637373
0.0002012524923
0.0002734435892
0.0004099144301
0.0006152737619
0.0009180341837
0.001371939269
0.002064597332
0.003114714362
0.004663593968
0.006846112292
0.00973973608
0.01331630305
0.01741043983
0.02174882905
0.02603455111
0.02997337952
0.03333476051
0.03600138675
0.03796918044
0.03932092443
0.0401781616
0.04065343848
0.040911745
0.04099044182
0.04095486712
0.04085831235
0.04067797053
0.04033009452
0.03978206709
0.03911770759
0.03852598287
0.03831798378
0.03786504064
0.03768035948
0.03764259995
0.03762685289
0.0376225372
0.03765110565
0.03772438138
0.03783322734
0.03792794511
0.03796267655
0.03775778358
0.03624948565
0.01905007892
0.0001387512408
0.0001837391738
0.0001573897085
0.0001548914708
0.0001675636116
0.0002012525518
0.0002734226741
0.0004098737759
0.0006152600128
0.0009180715096
0.001372102556
0.00206503459
0.003115748814
0.00466571962
0.006850165906
0.009747777824
0.01333097754
0.01742356198
0.02175998143
0.02603735706
0.02996105074
0.0333067299
0.03596226223
0.03791862924
0.03924651074
0.04006824273
0.04051910189
0.04084157857
0.0408618983
0.04088485763
0.0405137939
0.04015828561
0.0397783886
0.03911312841
0.03888938525
0.0375812355
0.03254613143
0.02341013899
0.02256529941
0.02259458125
0.02271954293
0.02263029002
0.02262051354
0.0227638928
0.02301445603
0.02329620372
0.02361887012
0.0241211162
0.02332857913
0.01712697081
0.0001387510655
0.0001837389321
0.0001573894962
0.0001548912756
0.0001675635913
0.0002012523545
0.0002734130649
0.000409882881
0.0006153202232
0.0009181646562
0.001372252438
0.002065362031
0.003116523001
0.004667341851
0.006853276034
0.009754049531
0.01334305449
0.01743692444
0.02177492536
0.02604465336
0.02995173243
0.03328835409
0.03593822731
0.03787267388
0.03915865066
0.03989442335
0.04015344541
0.04117403522
0.04099413114
0.04186971445
0.04177379728
0.0413580583
0.04085734351
0.04020846342
0.0394577241
0.03860395819
0.03807181785
0.03719864697
0.03613397748
0.03537735748
0.03502901076
0.03483951176
0.03463087226
0.03444632854
0.03439226117
0.03431130273
0.03411598906
0.03391578765
0.03208785954
0.01870600165
0.000138750957
0.000183738797
0.0001573893778
0.000154891177
0.0001675636218
0.0002012522925
0.0002734063654
0.0004099035198
0.0006153997018
0.0009182857277
0.001372367631
0.002065561535
0.003116995208
0.004668357001
0.006855235729
0.009758044855
0.01335074486
0.01744639829
0.02178654821
0.02605406335
0.0299575068
0.03328883918
0.03598437182
0.03786866231
0.03898317331
0.03950140251
0.03968586271
0.04000012699
0.03971868296
0.03891397544
0.03807727368
0.03598949936
0.03397992442
0.03370440113
0.0337955281
0.03389109036
0.03407969563
0.0343315825
0.03389531836
0.03339685318
0.0332205002
0.03333886818
0.03370507041
0.03417766872
0.03456057547
0.03493562877
0.03517666831
0.03533900432
0.03443629145
0.01907331364
0.0001387509193
0.0001837388117
0.0001573893828
0.0001548911777
0.0001675636787
0.0002012523782
0.0002734048464
0.0004099142168
0.0006154310384
0.0009183474984
0.001372409282
0.002065623869
0.003117147604
0.004668692443
0.00685589044
0.009759429025
0.0133532829
0.01744959838
0.02179062762
0.02605959296
0.02996494416
0.03330006608
0.03602774952
0.03788942951
0.03887876568
0.03950913677
0.03988901829
0.03980652108
0.03937150822
0.02619582793
0.02465588548
0.02300075573
0.02165269535
0.02155095044
0.02158658582
0.02160860002
0.02179066019
0.02229419407
0.02286226809
0.02318621634
0.02369135002
0.02453256948
0.02562083431
0.02699474028
0.02872093635
0.03053165922
0.03212866757
0.03330809167
0.03287932767
0.01889195851
0.0001387509526
0.0001837390569
0.0001573895939
0.0001548913583
0.0001675637899
0.0002012525418
0.0002734059055
0.0004098930267
0.0006153773378
0.0009182552919
0.001372356842
0.002065553487
0.003116967027
0.004668292292
0.006855122079
0.009757847051
0.01335041155
0.0174459638
0.02178601304
0.02605342423
0.0299567716
0.03328800855
0.03598207768
0.03786733096
0.03898210884
0.0395009617
0.03968307741
0.03999758754
0.03906927915
0.03554598177
0.02955325328
0.02379736475
0.02054873836
0.02071616422
0.0208802178
0.0201749403
0.02070117527
0.0211155048
0.02163227325
0.0222802698
0.02302855845
0.02384283677
0.02490186592
0.02616891721
0.02744012339
0.02876153106
0.03001114948
0.03123638595
0.03155531932
0.01859406118
0.0001387510592
0.0001837393094
0.000157389821
0.0001548915692
0.0001675638742
0.0002012527797
0.0002734126528
0.0004098731738
0.000615296277
0.0009181374257
0.001372234568
0.002065337039
0.003116456836
0.004667201379
0.006853031323
0.009753617211
0.01334231631
0.01743595432
0.02177371429
0.02604319331
0.02995001879
0.03328636583
0.03593568558
0.03787156729
0.03915891189
0.03989512168
0.04015247046
0.04116109305
0.04077210654
0.03515370222
0.02615719689
0.02012797232
0.01543809429
0.01523565253
0.01515278635
0.01450788642
0.0145600321
0.01476325597
0.01507369809
0.01545770615
0.01592366564
0.01649904463
0.01721178531
0.01810215716
0.01924605845
0.02063559721
0.02228073241
0.02398251841
0.02467172845
0.01690002636
0.0001387512326
0.0001837394005
0.0001573898835
0.0001548916703
0.0001675638675
0.0002012529518
0.0002734218792
0.0004098712175
0.0006152512393
0.0009180592708
0.001372086662
0.002064994277
0.003115644383
0.004665510106
0.00684980083
0.009747122645
0.01332988759
0.01742212113
0.0217581705
0.02603516924
0.02995846494
0.03330378285
0.03595900601
0.03791681002
0.03924823088
0.04007125154
0.04051709054
0.04082902124
0.03892893653
0.0321281403
0.02412822048
0.01869232291
0.01282268871
0.1071608239
0.100987168
0.07629793438
0.07054858527
0.05314126856
0.04693193596
0.04433010762
0.04161644063
0.03905435872
0.03684575217
0.03481304161
0.03305332152
0.03162699135
0.03053626455
0.03001574724
0.02777950356
0.01824173707
0.0001387514668
0.0001837396221
0.0001573901555
0.0001548919587
0.0001675641348
0.0002012531045
0.0002734470748
0.0004099219203
0.0006152761093
0.0009180305855
0.001371922027
0.002064540556
0.003114572848
0.004663319966
0.006845633719
0.009738875195
0.0133148939
0.0174085416
0.0217464603
0.02603169152
0.02997003738
0.03333100299
0.03599724195
0.03796461997
0.03930960863
0.04017895279
0.04064979637
0.04090177703
0.03954712431
0.03376549676
0.02557587329
0.01993219811
0.01533044777
0.01520966568
0.01517791523
0.01526776354
0.01542407332
0.01588645546
0.01644662699
0.0169611858
0.01761086098
0.01840018536
0.01939965549
0.0206455928
0.02214857796
0.02389219753
0.02576391221
0.02766169995
0.02914483097
0.01801151704
0.0001387517543
0.0001837398188
0.0001573904361
0.0001548922691
0.000167564548
0.0002012534791
0.0002734826491
0.0004099888056
0.0006153371999
0.0009180400033
0.00137174998
0.002063993436
0.003113286569
0.00466074159
0.006840778533
0.009729514499
0.01329852724
0.01739347068
0.02173668271
0.02602736433
0.02997343556
0.03335144832
0.03603543795
0.03801448172
0.03936649129
0.04024934749
0.04073897797
0.04099685155
0.04022762293
0.03661235863
0.02980105694
0.02375451615
0.02041084469
0.02059002058
0.02095165686
0.02137503732
0.02225841081
0.02328219982
0.02438736134
0.02546729473
0.02666010032
0.02798118745
0.02940867841
0.03090464179
0.03237202717
0.03375486479
0.03497262005
0.03576221054
0.03588008556
0.01900713273
0.0001387520883
0.0001837397283
0.0001573905497
0.0001548924131
0.0001675647676
0.0002012535282
0.000273518623
0.0004100555323
0.000615413399
0.0009180760062
0.001371588812
0.002063395881
0.003111854283
0.0046578754
0.00683541254
0.009719506909
0.01328150892
0.01737290083
0.02172120966
0.02601641304
0.02996970529
0.03335757948
0.03606282882
0.03806195862
0.03943640729
0.04033196991
0.04086551313
0.04114592899
0.04100513458
0.03957482361
0.03561078012
0.03046997631
0.02715936218
0.02759409332
0.02820607794
0.02888634458
0.0298472181
0.03092713687
0.03188794298
0.03286785636
0.03385935393
0.03485602384
0.03582337274
0.03673352896
0.03749501155
0.03811354134
0.03853719861
0.03855497511
0.0376870183
0.01926033127
0.0001387524508
0.0001837403264
0.0001573911914
0.0001548931421
0.0001675658839
0.0002012552466
0.0002735844139
0.0004101705738
0.0006155565827
0.0009181843509
0.001371450285
0.002062733661
0.003110283502
0.004654821257
0.006829833933
0.009709419789
0.0132646635
0.01734886313
0.02169866107
0.02599951831
0.02995988483
0.03336043421
0.03608373452
0.038110819
0.03951950207
0.04044025634
0.04099655839
0.04129884318
0.04132230208
0.04092149196
0.03951804172
0.03700294182
0.03491375062
0.03522320752
0.0356113238
0.03603853353
0.03654377935
0.0370373738
0.03750298561
0.03796325822
0.03842727297
0.03884107033
0.03921732499
0.03954897088
0.03977931288
0.03990867638
0.03989166953
0.03953967159
0.03816310924
0.01932455002
0.0001387528494
0.0001837401966
0.0001573913713
0.000154893429
0.0001675663087
0.0002012553705
0.0002736206861
0.000410228499
0.0006156152115
0.0009182479247
0.001371356664
0.002062160318
0.003108758628
0.004651663969
0.006823898425
0.00969887745
0.01324774823
0.01732520776
0.02167272032
0.0259747205
0.02994172467
0.03335502386
0.03609427406
0.03814438886
0.03958024715
0.04051671065
0.04106462357
0.0413237477
0.04136992844
0.04124808866
0.04090262769
0.0402182949
0.03957472628
0.03966860242
0.03977604042
0.03990123411
0.04002815926
0.04015147916
0.04026654887
0.04037537808
0.04054424273
0.04069332701
0.04076741403
0.04082183835
0.04079501378
0.0406867636
0.04046217676
0.03993394785
0.03819839205
0.01933093143
0.0001387532518
0.0001837414138
0.000157392847
0.000154895691
0.0001675703606
0.0002012635615
0.0002737716917
0.0004105055706
0.00061760874
0.000920924013
0.001374249564
0.002064500153
0.003109542076
0.004649440636
0.006816595474
0.009683597845
0.01322116789
0.01728483953
0.02161865698
0.02590606789
0.0298609519
0.03326227219
0.03597917321
0.03800479618
0.03941740559
0.04033319106
0.04087006894
0.04112093371
0.04117539088
0.04111795324
0.04099412578
0.04082693977
0.0407087437
0.04073542648
0.04075213858
0.04076809935
0.04077849453
0.04078453299
0.04078768733
0.04079231174
0.04087483133
0.04100235507
0.04103511974
0.04101422536
0.04094693544
0.04079923286
0.04054347209
0.03999373717
0.03824546158
0.01932980294
0.0001387536629
0.0001837424865
0.0001573961981
0.0001549031466
0.0001675845809
0.0002012861466
0.0002738660924
0.0004119305983
0.000621070829
0.000925840306
0.001380174317
0.002070231564
0.003113102306
0.004648145526
0.006806803983
0.009660666504
0.0131802497
0.01722176242
0.02153135543
0.02579266671
0.02971821104
0.03308128787
0.0357582152
0.0377502254
0.03913538831
0.04002907485
0.04055230842
0.04080628478
0.04087691752
0.04084598529
0.04077450014
0.04071758145
0.0407305744
0.04077086033
0.04079798982
0.04081852649
0.04083260747
0.04083849723
0.0408382688
0.04083661052
0.04090948786
0.04102500928
0.04106855737
0.04102137638
0.04094250788
0.04078529424
0.0405174173
0.03995321678
0.03808102901
0.01931268899
0.0001387540787
0.000183757953
0.0001574207409
0.0001549499784
0.0001676697159
0.0002014260839
0.0002757861532
0.0004164410814
0.0006279248437
0.0009346667511
0.001389863189
0.002078879299
0.00311814823
0.004645999275
0.006792716918
0.009628763186
0.01312330292
0.01713269414
0.02140505451
0.02562633178
0.02950888715
0.03282378982
0.03545579539
0.03740853062
0.03876180771
0.03962994817
0.04013488574
0.04038777177
0.04047573565
0.04047375274
0.04043212242
0.04040308987
0.04043647412
0.04051833483
0.04058391901
0.0406429627
0.04069451338
0.04073180787
0.04075404163
0.04076721196
0.04084965754
0.04097162658
0.04101982105
0.04097930154
0.04090586491
0.04075701982
0.04049666297
0.03993928764
0.03808293074
0.01931350927
0.000138754661
0.0001838310882
0.0001575269276
0.0001551460726
0.0001680163158
0.000203047903
0.0002802539197
0.0004240224164
0.0006388324118
0.0009479999902
0.00140376938
0.002090164842
0.003121852736
0.00463545653
0.006759582935
0.009563036213
0.01301436478
0.01697058206
0.02118326321
0.02534181833
0.02915292152
0.03239387353
0.0349616294
0.03686128715
0.03817361143
0.03901226646
0.03949718727
0.03973722763
0.03983392206
0.03983951983
0.0398152423
0.03980301368
0.03984528863
0.03997435373
0.04008956769
0.04020072289
0.04030789953
0.04039797697
0.04046589368
0.04051513072
0.04058596692
0.04066528768
0.04069777469
0.0406764076
0.04063607131
0.0405292749
0.04029491704
0.03975880941
0.0378694776
0.01930854735
0.0001387562042
0.0001842321771
0.0001579985553
0.0001558957529
0.0001708677374
0.0002088015402
0.0002914764624
0.0004407626704
0.0006597116172
0.0009703453651
0.001423377564
0.002100574649
0.003114291552
0.004597964431
0.006676244815
0.009414444124
0.01277718756
0.01662106383
0.02070327742
0.02472173914
0.02838575778
0.03148666748
0.03393169067
0.03573310435
0.03696894449
0.03775672275
0.03820507357
0.03842601116
0.03849743431
0.03848839014
0.038455715
0.03843610589
0.03846807619
0.03862931185
0.03878225399
0.03894575901
0.03913638856
0.03931940029
0.03947391779
0.03959622112
0.03968857252
0.0397545063
0.03979819202
0.03982464778
0.039837793
0.03981021081
0.0395253925
0.03910260216
0.0373298532
0.01930345332
0.0001387698948
0.0001858886806
0.0001597422824
0.0001592889328
0.0001777055514
0.0002196007592
0.0003155720265
0.000476250791
0.0007022189216
0.00101293442
0.001456489558
0.002111028144
0.003083075612
0.004500152089
0.006482492132
0.009091086558
0.01228761931
0.01592911334
0.01977979713
0.02355066515
0.02696850167
0.02984428102
0.03209846614
0.03374930315
0.03487297771
0.03558183685
0.03598079597
0.03616923499
0.03622487543
0.03620477469
0.03615862089
0.03612053854
0.03612759094
0.03630243661
0.03647099172
0.03667996239
0.03701057958
0.03735687908
0.03766705712
0.03792832157
0.03814263754
0.03831654065
0.03845534844
0.03855630818
0.03857088581
0.03852883062
0.0383016341
0.03805961086
0.03651880875
0.01929713603
0.000138908569
0.0001924607515
0.0001709377287
0.0001738477953
0.0001978594936
0.0002598586443
0.0003804637222
0.0005559745041
0.000786664046
0.001092168426
0.001516668261
0.002131621685
0.003036899174
0.00435071986
0.006179620025
0.008571236669
0.01147573507
0.0147468189
0.01816409231
0.02147229219
0.02444116992
0.0269154432
0.02883751674
0.03023254647
0.03117590418
0.03176583771
0.03209589331
0.03224881932
0.03228879808
0.03226570764
0.03221435618
0.03216770363
0.03213542695
0.0322110229
0.03236811235
0.03255442142
0.03300936026
0.03354653873
0.03406105376
0.03452754294
0.0349336678
0.03522432587
0.03542762943
0.03554823132
0.03558088939
0.03557582169
0.03544684129
0.03540900893
0.03462810639
0.01931853016
0.0001394739164
0.000169262271
0.0001772298491
0.0002083895573
0.0002741968395
0.000386203576
0.0005501369719
0.0007662526962
0.001037731839
0.001380148079
0.001826649511
0.00243566485
0.00329928219
0.004536176693
0.006257332631
0.008512974004
0.01125927168
0.01435827274
0.01759064481
0.02070370173
0.02349294478
0.02582745782
0.0276470376
0.02897388929
0.02987817222
0.03044968317
0.03077814155
0.03093827301
0.03099021911
0.03097848985
0.03093003855
0.03085805628
0.03075533205
0.03072040962
0.03081209642
0.03093121448
0.03128639622
0.03175454152
0.03221967639
0.03264456497
0.03301356407
0.03319374635
0.03330729639
0.03336702929
0.03337693861
0.03336917791
0.0333080701
0.03338865716
0.03216642455
0.01919288554
0.0001421796231
0.0001448094
0.000184611173
0.0002647004631
0.000403225971
0.0006089425074
0.0008739024638
0.001186505714
0.001544473175
0.001958922276
0.002455256535
0.003080713879
0.003910464843
0.005036573353
0.00653350098
0.008398122072
0.0105466265
0.01285138943
0.01515574496
0.01730613809
0.01918118645
0.02070848215
0.02187730613
0.02271952495
0.02329089363
0.02365356957
0.02386608589
0.02397693724
0.02402195744
0.02402346216
0.0239089331
0.02350762775
0.02277438559
0.0220393369
0.02201900928
0.02213829972
0.02229536389
0.02249559037
0.02271055366
0.02292848201
0.02310602805
0.02324180636
0.02336522987
0.02348198992
0.02359366377
0.02370584766
0.02379554635
0.02394807535
0.02323018883
0.01666557037
0.0001393167654
0.0001144846709
0.0001095944426
0.0001262833928
0.0001722752789
0.00025994649
0.0003995241184
0.000596806558
0.0008601021866
0.001211389258
0.00169307446
0.002374532058
0.003360643396
0.004788291903
0.00679356178
0.009452718595
0.0127363212
0.01649435444
0.02045372573
0.0243306212
0.02787103504
0.03089056412
0.033299965
0.03510278309
0.0363699011
0.03720817751
0.03772923447
0.03803146125
0.03818826575
0.03790314825
0.03640042113
0.03332410895
0.0293893451
0.02623171269
0.02607638391
0.02652609226
0.02703664238
0.0276866587
0.02841797161
0.02923267555
0.03010405228
0.03100630681
0.03191632739
0.0328134202
0.03367726249
0.0344873674
0.03521703842
0.03570245273
0.03482353935
0.01895821114
0.0001349700608
0.0001099818084
9.440290545e-05
8.361392845e-05
7.653797936e-05
7.211633575e-05
7.106050252e-05
7.82728704e-05
0.0001098511746
0.0002089858477
0.0004679069525
0.00103588115
0.002107611837
0.003904977475
0.006652637509
0.01054533403
0.0157093076
0.02216186498
0.02977490989
0.03824579417
0.04709750991
0.05573378327
0.06355427853
0.07010055606
0.0751608702
0.07877548505
0.08117192083
0.08264370476
0.08348295111
0.08390584474
0.08406412571
0.0838116831
0.08295140058
0.08168817216
0.0817740457
0.0819535667
0.08215543076
0.08237539571
0.08261010211
0.08281332745
0.08297880334
0.08312084505
0.08324793876
0.08335988056
0.08345269914
0.08352170555
0.08359636721
0.07445966718
0.07548798495
0.04349195134
0.0001340100904
0.0001114255435
9.57036104e-05
8.476582055e-05
7.745502963e-05
7.272834744e-05
7.132064774e-05
7.822855844e-05
0.0001098709418
0.0002103974854
0.0004740797208
0.001052549472
0.002141570144
0.003962150665
0.006737001489
0.01065941186
0.01585705686
0.02235313675
0.03002754678
0.03858587187
0.04755514878
0.05633398969
0.0643081232
0.07100033359
0.07618161958
0.07988758223
0.08234180183
0.08384989702
0.08470563101
0.08515073745
0.08536212549
0.08546560584
0.08553983042
0.08564803058
0.08582527267
0.08602432605
0.08619020014
0.08632581893
0.086417607
0.08638224329
0.08629897545
0.08620219245
0.08610572036
0.08600947075
0.08591039952
0.08579800372
0.08566510505
0.07575871883
0.07677625181
0.05494042472
0.0001340644043
0.0001117540724
9.617763913e-05
8.476439352e-05
7.744766883e-05
7.262400008e-05
7.110454021e-05
7.78058467e-05
0.0001089690372
0.0002084295824
0.0004701904672
0.001045961847
0.002131945863
0.003949833842
0.006723038383
0.01064578961
0.01584714582
0.0223524785
0.0300448538
0.03863346323
0.0476484445
0.05648928653
0.0645390677
0.07131352865
0.07657548757
0.08035347898
0.08286896485
0.08442596019
0.08532185333
0.08579868831
0.08604140014
0.08617478129
0.08628238963
0.08642579752
0.08657713554
0.08669929189
0.08679798164
0.08687555245
0.08693582365
0.08698248628
0.08701841715
0.08703571487
0.08703476223
0.08701299053
0.08696440867
0.08687091812
0.08477762203
0.06985088266
0.07122404499
0.0530400981
0.0001343375343
0.0001125147439
9.623470742e-05
8.451137259e-05
7.723441018e-05
7.244402617e-05
7.095078468e-05
7.780925818e-05
0.000109514604
0.0002105006329
0.0004756523915
0.001057380712
0.002152134232
0.003981405365
0.00676826493
0.01070663476
0.01592542525
0.02245006615
0.03016370242
0.03877536288
0.04781451456
0.05667931433
0.06475126193
0.07154509058
0.07682327684
0.0806150214
0.08314255779
0.0847114067
0.08561992189
0.08611272803
0.0863693774
0.08651692896
0.08663885903
0.08678590947
0.08691272939
0.08701271311
0.08709243402
0.08715461096
0.08720199431
0.08723804136
0.08726338026
0.08728235267
0.08729526271
0.08730252262
0.08729398529
0.08522356345
0.08219458579
0.06918707653
0.0707420564
0.05302916665
0.0001343374053
0.0001124968284
9.62269206e-05
8.448587773e-05
7.719357365e-05
7.233911632e-05
7.08562326e-05
7.778366965e-05
0.0001097195551
0.0002113668243
0.000478075929
0.001062780164
0.002162411259
0.003998854381
0.006795275221
0.01074536518
0.01597761123
0.02251694292
0.03024594908
0.0388731405
0.04792760267
0.05680722225
0.06489318299