/*--------------------------------*- C++ -*----------------------------------*\
| =========                 |                                                 |
| \\      /  F ield         | OpenFOAM: The Open Source CFD Toolbox           |
|  \\    /   O peration     | Version:  2.2.1                                 |
|   \\  /    A nd           | Web:      www.OpenFOAM.org                      |
|    \\/     M anipulation  |                                                 |
\*---------------------------------------------------------------------------*/
FoamFile
{
    version     2.0;
    format      ascii;
    class       volScalarField;
    location    "2";
    object      p;
}
// * * * * * * * * * * * * * * * * * * * * * * * * * * * * * * * * * * * * * //

dimensions      [0 2 -2 0 0 0 0];

internalField   nonuniform List<scalar> 
86889
(
592.3627239
592.0186188
591.8828807
591.7153714
591.4587975
591.1747255
590.8822983
590.5610728
590.1986516
589.7917189
589.3340964
588.8219801
588.247999
587.6029059
586.8891757
586.1035435
585.2117348
584.1996857
583.0592942
581.7708667
580.3084879
578.6512514
576.7700559
574.6329864
572.1976772
569.4234388
566.249776
562.6131307
558.4330594
553.616751
548.0342641
541.5555369
534.022775
525.2658897
515.1120409
503.3069701
489.6825182
473.9165497
455.6634628
434.5925929
410.3511506
382.61814
351.1299547
315.7143992
276.3175775
233.0533375
186.2649676
136.6983196
85.92515278
38.56423589
592.211811
591.9535247
591.7741022
591.5766381
591.3509219
591.0982961
590.8218466
590.5147802
590.1688158
589.7784744
589.3382963
588.8406591
588.2797063
587.6534115
586.9562975
586.1765405
585.3024462
584.3095155
583.1831155
581.9102807
580.4675363
578.8333345
576.9756013
574.8655608
572.4633474
569.7239961
566.5928419
563.0056784
558.8821493
554.1288935
548.6239669
542.2383083
534.8216819
526.1873913
516.1645582
504.5029495
491.0934251
475.4468504
457.3320519
436.4202486
412.3210781
384.6996998
353.2765213
317.8587115
278.361748
234.8625419
187.6419408
137.3423823
85.8348693
38.24129457
592.2124527
592.0405216
591.892425
591.7143401
591.5009041
591.2579913
590.9907752
590.6874672
590.3402149
589.9472529
589.5055892
589.0118923
588.4611559
587.8446861
587.1567728
586.3911355
585.530977
584.560727
583.4630156
582.2200478
580.8145063
579.2202763
577.4120862
575.3555988
573.0181777
570.352209
567.3097229
563.8252216
559.8257441
555.2135479
549.878771
543.6821677
536.4834937
528.0986637
518.3424064
506.977279
493.8880387
478.6002815
460.8483076
440.2743199
416.4652651
389.0798956
357.7943208
322.3991228
282.7534471
238.9031782
191.1419711
140.6580363
87.32687714
39.46876044
592.2217028
592.04477
591.8822831
591.6853851
591.48717
591.2645431
591.0019627
590.7151494
590.3901848
590.0189904
589.6018148
589.1372974
588.6131436
588.0322409
587.3807601
586.6515039
585.8299472
584.8999014
583.8469274
582.6557834
581.307526
579.778998
578.0438904
576.0722853
573.8306316
571.2776987
568.3646697
565.0325143
561.2086701
556.8054793
551.7076923
545.7935783
538.9141488
530.8893296
521.5237869
510.5721555
497.8426793
483.0270035
465.7754674
445.6793154
422.3062558
395.2798369
364.2300611
328.8727333
289.0411492
244.8090059
196.677189
145.499997
90.05456524
40.78546985
592.3039701
592.1417903
592.0024113
591.8240379
591.6436868
591.4560145
591.2195195
590.9443063
590.6328806
590.2757597
589.8693666
589.4207622
588.9227398
588.3591994
587.7336304
587.0380442
586.2576231
585.374951
584.3758746
583.2474154
581.9706003
580.5236471
578.8818933
577.01757
574.8995005
572.4899701
569.7443626
566.607982
563.0134771
558.8754612
554.0856791
548.5238152
542.0403567
534.4603471
525.5921583
515.2061568
503.0645336
488.899005
472.3143353
452.8581262
430.0697226
403.5140204
372.7742451
337.4919315
297.4434926
252.8095979
203.8097543
150.9060202
93.45161907
42.33105274
592.3985317
592.233489
592.0926651
591.9109043
591.7279109
591.5458428
591.3326725
591.0719002
590.7798969
590.452743
590.0797693
589.6655897
589.2037938
588.6864878
588.1117508
587.4698068
586.7478432
585.9298087
585.0039191
583.9574075
582.7715359
581.426287
579.8987934
578.1636221
576.1935365
573.9542133
571.4070209
568.5030538
565.1786122
561.3587529
556.9373827
551.7917563
545.7656914
538.6936109
530.4179503
520.6927179
509.282
495.8921929
480.1112326
461.4456496
439.3789243
413.4203108
383.089781
347.9183904
307.6067617
262.3002732
211.9247873
157.2717481
97.51556712
44.13548602
592.5388763
592.3815157
592.2536865
592.0876712
591.9210338
591.7566006
591.5672297
591.3409359
591.0694298
590.7533454
590.4093749
590.0259215
589.5992791
589.1224367
588.5933934
588.0055516
587.3462111
586.5997358
585.7546065
584.7988369
583.7150439
582.4839622
581.0846463
579.4941472
577.688318
575.6387803
573.3125868
570.6683513
567.6496961
564.1811732
560.1726404
555.4990504
550.0006038
543.5303329
535.9323413
526.9709755
516.3941834
503.883025
489.0029033
471.2210759
449.9706378
424.6925985
394.8356737
359.8112361
319.1900575
272.9217528
221.094451
164.6699839
102.2564345
46.26827045
592.6938416
592.5364749
592.4112496
592.2479458
592.0872576
591.9302831
591.7516209
591.551899
591.3081358
591.027552
590.7173379
590.3746519
589.9939355
589.5710362
589.1024704
588.5819133
587.9981934
587.3366264
586.5868807
585.736874
584.7699036
583.6674391
582.4098671
580.977051
579.347458
577.4995468
575.4074219
573.0389516
570.3486024
567.2628051
563.7000301
559.5368852
554.6295574
548.7706939
541.8566962
533.6613515
523.9614002
512.438017
498.5897595
481.8024535
461.454305
436.931628
407.5885028
372.7268716
331.772393
284.4895747
231.0309586
172.7072657
107.3779382
48.56264676
592.8798497
592.7278672
592.6121122
592.4612454
592.3172054
592.1772065
592.0249627
591.844998
591.6313815
591.3832096
591.1049764
590.7998016
590.4640361
590.093529
589.6855118
589.2342936
588.7298599
588.1584938
587.5099986
586.7728844
585.9307138
584.9647574
583.8563475
582.5876046
581.1380327
579.4933551
577.6367487
575.5512454
573.1960165
570.5068021
567.4093347
563.7820782
559.4701713
554.3360506
548.2105699
540.8875299
532.1271851
521.593368
508.7501945
492.9579067
473.5320221
449.7769639
420.9580986
386.2496752
344.9897492
296.7501014
241.6261074
181.2931768
112.886557
51.05426225
593.0797059
592.9292739
592.8170961
592.6734525
592.5366478
592.4121715
592.2766682
592.1218144
591.936319
591.7266109
591.4871172
591.2254266
590.9416519
590.631648
590.2922809
589.9190074
589.5029261
589.0313387
588.4946951
587.8802273
587.1728593
586.3530771
585.4002911
584.2982235
583.0292764
581.5796227
579.9486486
578.1369697
576.1206353
573.8447195
571.2309953
568.1479876
564.4160325
559.8990545
554.4499278
547.9226123
540.1171272
530.7316055
519.0501373
504.3317878
485.8519533
462.8599244
434.5239542
399.929037
358.2870788
309.0559338
252.2291906
189.7897152
118.3137645
53.50956339
593.3007178
593.1545249
593.0513038
592.9172969
592.7952265
592.6870836
592.571586
592.441611
592.2853121
592.1103568
591.9098525
591.6928173
591.4608608
591.211286
590.9416242
590.6483949
590.3239248
589.9564799
589.5368879
589.0531811
588.4886256
587.8219561
587.0287655
586.0918818
584.9945272
583.7265286
582.2911908
580.709861
578.9934526
577.1209328
575.0032011
572.5207149
569.5051587
565.7732985
561.1252482
555.4148313
548.4340654
539.9328918
529.2640338
515.577543
498.0243258
475.7586759
447.8656297
413.3602806
371.3149141
321.1465187
262.7126538
198.1877141
123.7119539
55.9797791
593.5293637
593.386078
593.2884124
593.163739
593.0545316
592.9621133
592.8663745
592.7608191
592.6334513
592.4933186
592.3332039
592.163014
591.9857567
591.7996029
591.6030858
591.3939545
591.1659682
590.9085714
590.6138466
590.2695607
589.8552531
589.3472664
588.7176023
587.9414444
587.0036995
585.8972013
584.6419037
583.2836067
581.8695195
580.3902044
578.7319256
576.7219773
574.1858719
570.9543812
566.839199
561.8054541
556.0187663
548.9054582
539.4476723
526.7472376
510.032994
488.4102603
460.8589469
426.3086139
383.7546569
332.5564346
272.4984898
205.8653898
128.5772612
58.19331788
593.7717194
593.6315025
593.5401038
593.4249552
593.3289611
593.2528677
593.1772019
593.0961699
592.9975262
592.8914938
592.7710131
592.6467958
592.5232474
592.3996748
592.2757643
592.1507434
592.0199302
591.8752552
591.7109306
591.5097041
591.2514416
590.9095236
590.4504909
589.8321848
589.0222101
588.0143735
586.8341252
585.5867704
584.4033364
583.3328037
582.2599718
580.9808438
579.269001
576.8643592
573.4884726
568.7619678
563.3270404
556.9239725
548.6322672
537.0962251
521.2801659
500.2833549
473.0387003
438.4324454
395.385149
343.2316964
281.6850638
213.1216927
133.2560027
60.32495679
594.0189059
593.8814689
593.795845
593.6895194
593.6058102
593.5450694
593.4886129
593.4313482
593.3603274
593.2873307
593.2052995
593.1259862
593.054982
592.9927677
592.940305
592.898479
592.8642329
592.8340834
592.8010353
592.746344
592.6501378
592.4835463
592.2050096
591.7617785
591.1039136
590.2168492
589.14454
587.9965704
587.0028149
586.2214723
585.4565006
584.5011662
583.1349435
581.1051186
578.0548419
573.7838679
570.4528392
565.617829
558.0737337
547.2878764
532.2573089
511.7765823
484.7133403
449.9491891
406.3164569
353.115958
290.0570276
219.5638513
137.3485096
62.19902305
594.2704453
594.1358071
594.0558426
593.9581535
593.8858638
593.8401992
593.8016626
593.7668138
593.7224405
593.6806781
593.6348271
593.5977215
593.5761676
593.5717762
593.5868184
593.6239721
593.6822159
593.7624493
593.8557141
593.9482593
594.0176186
594.02582
593.9155342
593.6089702
593.0211965
592.0912868
590.8424723
589.5563508
588.8577302
588.7268604
588.7768841
588.5960084
588.0922685
587.0301655
584.2251277
578.2476851
575.2370284
572.0895392
566.0018663
556.3415307
542.1455765
522.1692899
495.3624816
460.5386771
416.483546
362.371783
297.9662902
225.767217
141.3481333
64.07168024
594.5225877
594.3904615
594.315496
594.2258224
594.1645696
594.1323912
594.1106417
594.0961032
594.076317
594.0634684
594.0509512
594.0523488
594.0758456
594.1240655
594.2005364
594.3095268
594.4527493
594.6324108
594.8456461
595.0808487
595.320946
595.5255693
595.6388056
595.5811746
595.2257418
594.4582665
593.1962076
591.6590191
590.8023614
590.6824019
590.866035
590.9053486
590.6239004
589.6624656
587.6344419
584.3983721
582.3511009
579.4896835
574.0728991
565.1497143
551.5422603
532.0384806
505.4288573
470.4653133
425.9759047
370.9839789
305.2713332
231.3518915
144.8912177
65.72908817
594.7729663
594.6431733
594.5728833
594.4905135
594.4390555
594.4191945
594.4127314
594.4164168
594.4185076
594.4313465
594.4489238
594.4841968
594.5469763
594.6408131
594.7701094
594.9404818
595.1551704
595.4193567
595.730248
596.0773597
596.4426175
596.78565
597.0318175
597.0975062
596.8365011
596.0104145
594.3357945
592.3124678
592.4197796
593.7535569
594.1956709
594.2017347
594.0152342
593.4601095
592.1562502
589.7116583
587.3668319
584.7291359
580.4292168
572.5787866
559.7450149
540.7700504
514.4610096
479.5738676
434.8361473
379.2356932
312.4639639
237.1228127
148.5357378
67.35739513
595.0191465
594.8913576
594.8252689
594.7493711
594.70654
594.6976303
594.7046199
594.72431
594.7452454
594.7799836
594.8231023
594.8871016
594.9825984
595.1137552
595.285554
595.50465
595.7753323
596.1068175
596.4968935
596.9444939
597.4396408
597.9550363
598.4322401
598.7867939
598.8821465
598.2676181
596.6109214
593.2510545
593.8118342
594.4104774
595.6875319
596.4171013
596.5757453
596.2476483
595.3108896
593.5813238
591.9819231
589.9609943
586.4312448
579.3641175
567.0859802
548.5203471
522.4801088
487.7446082
442.9084363
386.811071
319.0744583
242.2613197
151.9091597
68.93829558
595.2589553
595.1328744
595.0705492
595.000171
594.9647972
594.9653346
594.983806
595.0171665
595.0538763
595.1066293
595.1696027
595.2567063
595.3779208
595.5373632
595.7402079
595.992895
596.2996409
596.6666622
597.0928295
597.5688598
598.0787835
598.5838326
599.0116321
599.283879
599.2648197
598.7019699
597.3254173
595.6466719
596.1015898
597.8011169
598.6887297
599.1881973
599.4819948
599.6087514
598.9203614
597.3188323
596.036742
594.3391704
590.9062522
584.1795587
572.391876
554.4061996
528.8976372
494.5335542
449.8363067
393.5747985
325.2292633
247.2917922
155.2484973
70.43107456
595.4906091
595.3659524
595.3067651
595.2409403
595.2118052
595.2201854
595.2480728
595.2925666
595.3416246
595.4081467
595.4863861
595.5908168
595.7304491
595.9091119
596.1317569
596.4042544
596.7301766
597.1138178
597.5552296
598.0456513
598.5713219
599.0958971
599.5673728
599.9130716
600.0122598
599.7588883
599.1105018
598.2168228
598.1055786
598.8115805
599.8371259
600.946528
601.4561728
602.0753609
601.2225608
599.1694306
598.9192509
597.713835
594.2902079
587.6022023
576.1105142
558.5637919
533.5372337
499.5461597
455.04535
398.7621264
330.0032646
251.0800421
157.864802
71.65784319
595.7125605
595.589031
595.5324407
595.4700458
595.4460144
595.46057
595.4959338
595.5488423
595.606944
595.6833399
595.7726076
595.8886456
596.0397043
596.2291526
596.4612968
596.7411466
597.0703715
597.4529071
597.8838755
598.3536584
598.8446076
599.3234982
599.7404289
600.0253033
600.101086
599.9146238
599.5003983
599.1385143
599.4869654
600.5151291
601.7364918
603.0564524
603.3769856
604.435371
603.7417546
599.7179515
600.1088566
599.4073139
595.7946652
588.9911927
577.6792319
560.4534466
535.8320414
502.2563927
458.1130965
402.0640899
333.2393346
253.8790048
159.8102147
72.50996105
595.923548
595.8007996
595.7460141
595.6864236
595.6659514
595.6850563
595.7259989
595.7843371
595.8485995
595.9314059
596.0273937
596.1497301
596.3059839
596.4988646
596.7319059
597.0089671
597.3303813
597.6966709
598.1057884
598.5437416
598.9962263
599.4418224
599.8465626
600.1664265
600.363809
600.4240732
600.4127766
600.4503088
600.7884632
601.4859082
602.2980419
603.139936
603.5453454
603.8378498
603.5214083
601.7121437
601.120329
599.4365444
595.3808165
588.2205853
576.7579221
559.5773914
535.1488397
501.8726832
458.0655911
402.2940524
333.6407307
254.2359245
160.1290535
72.65964585
596.1227471
596.0005922
595.9472315
595.8896093
595.8717512
595.8941207
595.9385382
596.0000526
596.068133
596.1541234
596.2528891
596.3769418
596.5330437
596.7231342
596.9499988
597.2163696
597.521542
597.8621514
598.2377351
598.6371548
599.0466253
599.4473307
599.8147367
600.1197414
600.3357196
600.4559896
600.5363042
600.683344
601.0442698
601.684563
602.4326272
603.1296175
603.5360977
603.5938772
603.002043
601.5191585
600.0167009
597.5700155
593.0116438
585.3193206
573.3844752
555.9054977
531.3816116
498.1839511
454.6138225
399.2308712
331.1092014
252.3277497
158.9482406
72.11366794
596.308975
596.1868548
596.1339712
596.0771504
596.0604491
596.0842403
596.1300395
596.1925968
596.2617825
596.3479584
596.446102
596.568243
596.7200898
596.9028459
597.1185298
597.3688441
597.6519701
597.9624749
598.298426
598.6542209
599.0162896
599.369526
599.6952539
599.9816575
600.2161153
600.3998217
600.5790561
600.8082758
601.1401782
601.5875389
602.0483728
602.3824844
602.4498625
602.1557037
601.3261556
599.7954174
597.5575314
594.1504261
588.6844126
580.125262
567.3993241
549.2713632
524.3037112
490.886965
447.3567056
392.3381345
324.9940046
247.4090734
155.6991129
70.62135338
596.4833328
596.3615352
596.3093522
596.2539969
596.2380115
596.2626399
596.3088889
596.3712804
596.4398284
596.5236201
596.618189
596.7349459
596.878519
597.0495219
597.2493323
597.4787714
597.734946
598.0115632
598.3057767
598.6125112
598.9226695
599.2232237
599.4993287
599.7433644
599.9486357
600.1123363
600.2564474
600.4103951
600.5947132
600.805005
600.9671723
600.9606628
600.623728
599.829587
598.4430009
596.2785688
593.2171495
588.8721976
582.3728563
572.7547041
558.9929111
539.9366004
514.224558
480.3312293
436.7035341
382.0937354
315.8355085
240.0772706
150.8270338
68.38439277
596.6428816
596.519988
596.4659847
596.410228
596.3921893
596.4150235
596.4590141
596.5189477
596.5844724
596.6632917
596.7526689
596.8628942
596.997294
597.155328
597.3379511
597.5451849
597.773142
598.014791
598.2670454
598.5242073
598.7787545
599.0201092
599.2363804
599.4209611
599.5656532
599.6657833
599.7325839
599.7775932
599.7923584
599.7400019
599.5484388
599.1101045
598.2834706
596.9073909
594.8749417
591.968096
587.9446273
582.3987891
574.6090284
563.6785676
548.6270424
528.3732574
501.658656
467.0599394
423.2157389
369.0168266
304.0751183
230.6011551
144.5032974
65.48492322
596.7947632
596.6722123
596.6192948
596.561962
596.5456022
596.5696886
596.6118747
596.6697598
596.7323618
596.8006054
596.8824031
596.984149
597.1056268
597.2464264
597.4080623
597.5896327
597.7863352
597.9902197
598.1976098
598.4038259
598.6003819
598.7768066
598.9235535
599.031087
599.0884227
599.0893962
599.0286027
598.8984236
598.6719032
598.2926628
597.6899188
596.7531462
595.3367706
593.2827391
590.4590663
586.6372499
581.5460971
574.7636968
565.619658
553.2633585
536.7800909
515.1757065
487.3242355
451.9382262
407.8595585
354.1970885
290.8114821
219.9424147
137.5194592
62.28079873
596.9259061
596.8010384
596.7436755
596.6817523
596.6593711
596.6775695
596.7178012
596.7687248
596.8242853
596.884601
596.9609429
597.0561438
597.1674223
597.2943818
597.4378246
597.5964591
597.7644717
597.9331385
598.0982364
598.2547141
598.3932221
598.5033753
598.5736412
598.5924168
598.5460616
598.4219403
598.2023095
597.8647316
597.370787
596.6552215
595.6370768
594.1987389
592.199962
589.4367305
585.7876507
580.9838861
574.740383
566.6395821
556.0518455
542.1896075
524.2002326
501.1791412
472.1258732
435.9452522
391.6525255
338.6612441
276.969318
208.5853419
130.1543113
58.94961022
597.0549739
596.9314439
596.8753107
596.818076
596.7991304
596.8222992
596.8626121
596.9081411
596.9509604
597.0009895
597.0662268
597.1487023
597.2447921
597.3518827
597.4721141
597.6040495
597.7407875
597.8722337
597.9935048
598.0988026
598.1779918
598.2190588
598.2090351
598.1324848
597.9729884
597.7090685
597.3151626
596.7536996
595.9770998
594.9097291
593.4588654
591.4949759
588.8554904
585.3733554
580.8737399
575.0833284
567.694437
558.2876064
546.2769567
530.9401158
511.4884614
487.0993958
456.9081473
420.0093902
375.6205872
323.4207352
263.5305624
197.5424947
123.0494593
55.75343601
597.1627299
597.0340684
596.9693753
596.902475
596.8745793
596.8886126
596.9150074
596.9396581
596.9775921
597.0292967
597.0945204
597.1727743
597.2599402
597.355943
597.4622466
597.5749534
597.6869148
597.7877593
597.871546
597.9317566
597.956507
597.9328291
597.8449906
597.6745696
597.401151
596.9951941
596.4239732
595.6403197
594.5849814
593.1775264
591.3100686
588.8393415
585.6051094
581.4230267
576.1082086
569.365006
560.8831585
550.252506
536.9145147
520.1978291
499.3810535
473.7393992
442.5276024
405.0165861
360.6325642
309.3318809
251.2318885
187.4112654
116.5377495
52.81928956
597.2762189
597.1511064
597.0907085
597.0318872
597.0134384
597.0312601
597.046369
597.0693538
597.1037246
597.1442043
597.1916584
597.2512778
597.3219777
597.3985938
597.4807335
597.568402
597.6530539
597.7224203
597.7683877
597.7839252
597.7563572
597.6706141
597.5087781
597.248738
596.8658596
596.3248338
595.5867245
594.5945427
593.2823348
591.557078
589.3084999
586.3791541
582.6008487
577.7873005
571.6985261
564.0735912
554.6034622
542.8708135
528.3458122
510.4070559
488.4013255
461.6844907
429.6205815
391.6369183
347.3359305
296.7565819
240.3164083
178.6177425
110.8872458
50.26970377
597.3651331
597.2273479
597.1471507
597.0745702
597.0412582
597.0292736
597.0254059
597.0458758
597.0785988
597.1183718
597.1682096
597.2300589
597.2983388
597.3713694
597.4483686
597.5252237
597.5930937
597.6409713
597.6597946
597.6416045
597.5723752
597.435907
597.2109345
596.8746137
596.3953394
595.7379891
594.851365
593.679314
592.1387912
590.1427467
587.5539856
584.226528
579.9881026
574.6082518
567.8831521
559.5231507
549.228238
536.5661424
521.0458955
502.1021919
479.1286181
451.5575377
418.8403543
380.5272614
336.3239406
286.2604251
230.9723552
171.2855973
106.1744337
48.12831246
597.4814771
597.3471377
597.2814105
597.2289828
597.1891285
597.1667681
597.166457
597.1767717
597.1942798
597.2212726
597.2574263
597.3021598
597.3545438
597.4080451
597.4631116
597.5202061
597.5683904
597.5951118
597.5891168
597.5398955
597.43505
597.2546341
596.9786479
596.5781653
596.0230728
595.2679458
594.2657831
592.9435422
591.2275157
589.005046
586.1576968
582.5167545
577.9135244
572.112227
564.8978541
555.9607853
545.0718063
531.6946045
515.4009927
495.7022484
471.9943659
443.7924622
410.5899802
372.0754466
327.9891906
278.4376195
223.7323855
164.984636
102.528924
46.3991556
597.5676508
597.350579
597.255919
597.1872672
597.1311653
597.0995169
597.0934007
597.1055767
597.1309926
597.1673583
597.2120836
597.260966
597.3118711
597.3666447
597.4253497
597.4820124
597.5275199
597.5438223
597.523398
597.4575209
597.3303169
597.1227105
596.8112148
596.368211
595.7577538
594.9369424
593.8490099
592.4266003
590.5825704
588.2064386
585.1693521
581.3064431
576.4370567
570.3335702
562.7678344
553.4355784
542.1230949
528.2442888
511.4222949
491.1974331
467.008654
438.3791731
404.8850722
366.2313454
322.2545543
273.0395017
218.9042717
160.6805481
100.5355108
44.86100227
597.7574618
597.4537862
597.4020219
597.364181
597.2830167
597.2224725
597.2019804
597.2020987
597.2135107
597.2359015
597.2665067
597.3045028
597.3465946
597.387193
597.4341942
597.4882708
597.5225975
597.5282045
597.500779
597.4259209
597.2846193
597.0611619
596.7318319
596.2670961
595.6312343
594.7773963
593.6498874
592.1789672
590.2734083
587.8205976
584.6938674
580.7243026
575.7257947
569.4590675
561.7197485
552.2037857
540.6217949
526.54956
509.5068981
489.0276278
464.6049155
435.7760238
402.142903
363.4360907
319.5423866
270.5920273
216.9970473
159.6886877
100.5547349
45.14655918
592.1812769
591.8973635
591.7021446
591.5458087
591.317088
591.0603297
590.7881178
590.4840293
590.1373505
589.744093
589.2994457
588.7976569
588.2311376
587.5958128
586.8891801
586.100934
585.2182675
584.2083013
583.0679307
581.7808876
580.3249523
578.6751362
576.8026347
574.675613
572.2562603
569.4974851
566.3458275
562.7355495
558.5879687
553.8030676
548.2735713
541.8510297
534.3853547
525.6743353
515.5945293
503.9012814
490.3561522
474.7971795
456.7435721
435.8314983
411.7079416
384.0787967
352.6854644
317.3213683
277.8979888
234.5210176
187.5719412
138.2414224
86.23362565
38.5778317
592.0455871
591.8326787
591.6221937
591.3870348
591.1938003
590.9730417
590.7128694
590.4203841
590.0903037
589.7142491
589.2875635
588.8038445
588.2564894
587.6420247
586.9523089
586.1748037
585.2966206
584.3132927
583.1951673
581.9272018
580.4916888
578.8637905
577.0179194
574.9198055
572.5329496
569.8137163
566.706432
563.1492666
559.0632336
554.3533179
548.9056583
542.5837782
535.2301076
526.6725018
516.7241237
505.1560313
491.7808865
476.3685527
458.4821352
437.724789
413.7521859
386.2563791
354.9532954
319.5961446
280.0639114
236.4010186
188.8519326
137.6474037
88.2921347
38.66581959
592.0455983
591.9113666
591.748346
591.5330601
591.3308816
591.1232931
590.8810768
590.5937238
590.2599412
589.8801983
589.4519746
588.9706099
588.4283249
587.8200193
587.1380465
586.3747488
585.5151299
584.5466796
583.4521758
582.213364
580.8102825
579.2226638
577.4201187
575.3762606
573.0511406
570.4051294
567.3816826
563.9244828
559.9549708
555.3832796
550.0922418
543.9641651
536.8281345
528.5078525
518.8065547
507.5081545
494.4382035
479.3238811
461.7363348
441.2925626
417.6212242
390.3787809
359.248519
323.9180596
284.2325368
240.2144214
192.1682428
140.4904879
91.23699894
40.30722171
592.0641127
591.9348402
591.7779782
591.5516299
591.2989182
591.091035
590.875883
590.612255
590.3000394
589.9430511
589.5418732
589.0911521
588.5825391
588.0129472
587.3690437
586.6433121
585.8243754
584.8997267
583.8534695
582.6686885
581.3269448
579.8072098
578.0834786
576.1263928
573.9020645
571.3708967
568.4847182
565.1872236
561.4077095
557.0578189
552.0311458
546.2011574
539.4321911
531.5240797
522.3003242
511.4666417
498.8988181
484.3241884
467.3170515
447.4434769
424.3026501
397.5150415
366.6851862
331.4517202
291.5765316
247.0626865
198.4606872
143.8543276
93.28624811
41.69750479
592.1457684
592.037411
591.9058767
591.7196696
591.5031478
591.2775335
591.0778062
590.839448
590.544805
590.1983089
589.808728
589.3726115
588.8847757
588.3337012
587.7180173
587.0278985
586.2504966
585.3732845
584.3821255
583.2608432
581.9915339
580.5534239
578.922517
577.0720606
574.9711076
572.5838867
569.8667169
566.768142
563.2224975
559.1488045
554.4435563
548.9871663
542.6292743
535.177698
526.4437577
516.2041647
504.3177446
490.4535267
474.1718867
455.0130027
432.5454706
406.3321009
375.9083545
340.8207143
300.7358215
255.5332849
206.183228
149.07879
95.86318784
43.22478372
592.242159
592.1340481
592.004527
591.8240297
591.6127989
591.3871805
591.1597577
590.9456874
590.6883503
590.36942
590.0098993
589.6115522
589.1655543
588.6622301
588.0957086
587.4587679
586.7411134
585.9305904
585.0136812
583.9748285
582.7974186
581.462035
579.9465817
578.2268174
576.2753634
574.0606241
571.545087
568.6825975
565.4145418
561.667304
557.3348019
552.3274236
546.4671333
539.575175
531.4552994
521.9178806
510.7864603
497.7470603
482.3308732
464.0310072
442.3741419
416.9102701
387.0236892
352.1618948
311.8622895
265.775499
215.0718603
155.6155246
100.2797132
45.27763906
592.3827013
592.2822907
592.166489
592.0067389
591.8240472
591.6273021
591.4150483
591.1924969
590.9524248
590.6720767
590.3415558
589.9711439
589.5588346
589.0963696
588.5775806
587.9955175
587.3406418
586.6014414
585.7652087
584.8176919
583.7428937
582.5226291
581.1363458
579.5623386
577.7765958
575.7532024
573.4610994
570.8612356
567.9053393
564.5210853
560.6136664
556.1081805
550.8230248
544.5824815
537.1586443
528.4146261
518.1402829
506.0211844
491.5736302
474.2381487
453.4921026
428.8814594
399.6301694
365.0542204
324.5745924
277.6938947
225.386909
163.3976812
105.5195188
47.69948336
592.5383216
592.438773
592.3253909
592.17084
591.9955857
591.8146944
591.6171567
591.4074086
591.1794963
590.9308684
590.6442392
590.3184955
589.9533295
589.5441864
589.085961
588.5724513
587.995096
587.3421318
586.6013273
585.7598419
584.8024323
583.7117846
582.4690336
581.0541971
579.4467909
577.6267523
575.5710047
573.2495819
570.6246352
567.628183
564.1850583
560.2194462
555.5277502
549.9436753
543.2416037
535.3313155
525.9730155
514.8754295
501.5035649
485.2334587
465.5031908
441.7970049
413.243465
379.0074603
338.3347782
290.6259586
236.5385207
171.8569157
111.2205044
50.30880861
592.7244535
592.6299835
592.5256815
592.3849699
592.2282127
592.0636009
591.8959768
591.7107298
591.5010324
591.2743032
591.0251695
590.7424492
590.4232968
590.0664513
589.6688848
589.2251665
588.7275313
588.1658677
587.5276018
586.8000654
585.9684847
585.0159541
583.9239103
582.6738446
581.2472013
579.63068
577.8122218
575.7758573
573.4873319
570.8960836
567.9372235
564.5508392
560.6219723
555.7160097
549.8708104
542.8677969
534.434072
524.3343448
512.0169132
496.8247757
478.1298115
455.3473887
427.486201
393.5960805
352.7386525
304.1736862
248.2254528
180.88494
117.3675977
53.1533393
592.924596
592.8316047
592.7309251
592.5979217
592.4490771
592.3033888
592.1549031
591.9950298
591.8129262
591.6090254
591.4005829
591.1670118
590.9014788
590.6048084
590.2762185
589.9113768
589.5033185
589.0425229
588.5173191
587.9152019
587.2210388
586.4168761
585.4816177
584.3979094
583.1492691
581.7296968
580.1365327
578.3716199
576.4243038
574.2535207
571.7894715
568.9395753
565.5248588
561.2556356
556.0964943
549.9767044
542.7111613
533.8596156
522.7358018
508.6544435
490.9956017
469.0845884
441.833796
408.202685
367.1109147
317.6142069
259.7124839
189.789553
123.4033335
55.91690794
593.145989
593.0573022
592.9650417
592.8419668
592.7081312
592.5798902
592.452202
592.3176383
592.1638445
591.9914748
591.8219001
591.6341801
591.4212564
591.1851883
590.9267207
590.6428003
590.3275933
589.9726049
589.5669178
589.0975124
588.54714
587.8973786
587.124435
586.2090829
585.1310267
583.8866148
582.4862012
580.9469797
579.2995322
577.5383506
575.5801824
573.3328565
570.6378094
567.2159254
562.8599192
557.6055116
551.2185548
543.3502444
533.3477471
520.3647652
503.6808063
482.5426758
455.8290578
422.410806
381.1050491
330.7668718
271.0495543
198.5786978
129.4003066
58.7261943
593.3748226
593.2890019
593.2018423
593.0887938
592.9678065
592.8558426
592.7483133
592.6383484
592.5135123
592.3743601
592.2444066
592.1040663
591.9463734
591.774107
591.5894033
591.3906852
591.1735903
590.9309725
590.6526274
590.3239363
589.927674
589.4421972
588.8372087
588.0883331
587.1702388
586.0727764
584.8319024
583.5056725
582.1542977
580.7950299
579.3039803
577.5085837
575.2025427
572.254572
568.4290836
563.665613
558.8894262
552.6341843
543.8577679
531.8821531
516.1129266
495.6453918
469.3399316
435.9523444
394.2062656
342.8618658
281.4326576
206.5572225
134.8089349
61.22879615
593.6172697
593.5344364
593.4530477
593.3500868
593.2421405
593.147097
593.0597295
592.9743344
592.8783845
592.7726714
592.6820116
592.5879964
592.4843892
592.3750699
592.263703
592.1504344
592.032738
591.9054694
591.7587619
591.578456
591.3460163
591.0350945
590.6078693
590.018346
589.2286826
588.2137695
587.000516
585.738608
584.6140362
583.7000513
582.8234731
581.7589682
580.3032514
578.1031301
574.783714
570.5888289
565.7484163
560.7699357
553.523034
542.772315
527.9419002
508.1230291
482.1500299
448.740682
406.5564706
354.205629
291.1993331
213.9988257
139.839598
63.56604428
593.8645796
593.784541
593.7085901
593.6148817
593.5190721
593.4396168
593.3716894
593.3098299
593.2418192
593.1686976
593.1162585
593.0673891
593.0166337
592.9690525
592.9299581
592.9013697
592.8830102
592.8721802
592.8591914
592.8328406
592.7741818
592.6515552
592.4186865
592.0166589
591.3768059
590.4695946
589.2987526
588.0532409
587.0872589
586.4751777
585.9547412
585.2189013
584.1122554
582.2887577
577.8225371
573.3326041
575.1094429
569.7343525
562.5894952
552.9177049
539.0372024
519.8267282
494.175621
460.6170516
417.8445076
364.4298906
299.86068
220.5293431
144.1646998
65.51192595
594.1162259