/*--------------------------------*- C++ -*----------------------------------*\
| =========                 |                                                 |
| \\      /  F ield         | OpenFOAM: The Open Source CFD Toolbox           |
|  \\    /   O peration     | Version:  2.2.1                                 |
|   \\  /    A nd           | Web:      www.OpenFOAM.org                      |
|    \\/     M anipulation  |                                                 |
\*---------------------------------------------------------------------------*/
FoamFile
{
    version     2.0;
    format      ascii;
    class       surfaceScalarField;
    location    "2";
    object      phi;
}
// * * * * * * * * * * * * * * * * * * * * * * * * * * * * * * * * * * * * * //

dimensions      [0 3 -1 0 0 0 0];

internalField   nonuniform List<scalar> 
265716
(
38.35031983
-1.274407974
-0.8309577938
-41.88298687
2.907673339
2.730359667
39.77426091
-0.8983003168
-0.1502961362
-0.07222258473
-0.3031218603
40.03368974
-0.1414043965
0.1180211239
-0.07985010619
-0.1561952793
40.09222739
0.01851544743
0.06115139797
-0.05811058973
-0.08009368943
40.11953704
0.03346846546
0.04090742943
-0.04767109627
-0.05401424997
40.13708654
0.0329924555
0.03641396381
-0.04203054301
-0.04492507423
40.15121003
0.03137869272
0.03339649755
-0.03833780338
-0.0405605801
40.16372797
0.02985879162
0.0312992898
-0.03543406458
-0.03824157139
40.17655896
0.02858270438
0.02993803143
-0.03366728543
-0.0376841369
40.19159357
0.02786850234
0.02947752028
-0.03345403207
-0.03892617653
40.20804917
0.02766828816
0.02927976675
-0.03362517398
-0.03977814592
40.22063363
0.02672018338
0.02799872427
-0.03098463587
-0.03631823846
40.22506323
0.02313955302
0.02512278909
-0.02429660112
-0.02839496518
40.22097123
0.01657719432
0.02045813638
-0.01473103795
-0.01821172267
40.20973451
0.008156610446
0.01468259208
-0.003995243735
-0.007606829331
40.19511896
-0.0006802649598
0.01029219653
0.004673439684
0.0003308201194
40.18193998
-0.008029327657
0.008765519806
0.008666715575
0.0037765073
40.17413279
-0.01381723805
0.008764341328
0.009180508925
0.003680306994
40.17182043
-0.01822437434
0.009047221228
0.008755717201
0.002734280604
40.17355262
-0.02197370434
0.01024786909
0.008323723936
0.001670800101
40.17913253
-0.02563333151
0.01178217853
0.007894629743
0.0003771716324
40.18783352
-0.02935692276
0.01381905424
0.007613845095
-0.0007759743433
40.19838588
-0.03280384073
0.01639913069
0.007633400226
-0.001780557063
40.20948924
-0.03577327664
0.0194752885
0.00783089256
-0.002635341445
40.21923356
-0.03843451956
0.02410373479
0.008102772131
-0.003516097694
40.22674911
-0.04040986371
0.0287439881
0.008443696168
-0.004292770077
40.23082112
-0.04214321016
0.03427535185
0.008872646584
-0.005077151088
40.2311225
-0.04357730456
0.03995967645
0.009222278243
-0.005905901097
40.22788037
-0.0449147407
0.04608660291
0.008820051734
-0.006750122808
40.22539799
-0.04471779453
0.05003899691
0.004824325162
-0.007662035677
40.23064476
-0.04111664685
0.05774525509
-0.01159683295
-0.01027844261
40.26132809
-0.03034014757
0.06565158814
-0.04903137959
-0.01696340269
40.33549342
-0.01513272725
0.07134884413
-0.1034770252
-0.02690690705
40.43079387
-0.0124698983
0.07107018528
-0.1256523058
-0.02824949464
40.46937116
-0.05405617531
0.03517170238
-0.02626159066
0.006567653741
40.38716736
-0.0780067045
0.009263065615
0.05259123648
0.09835545153
40.00769702
-0.1044390832
0.001453552455
0.1512436941
0.3312113714
39.72424937
-0.1419599388
-3.89061204e-06
0.2087501399
0.2166600311
39.59969821
-0.1352672775
0.02999376787
0.1425928256
0.08722961422
39.5593896
-0.1312062039
0.05475792286
0.09773212875
0.019021725
39.55441304
-0.124711894
0.07541524557
0.06162627358
-0.007356265358
39.56221038
-0.1189047421
0.08783210236
0.0386406574
-0.01536835882
39.57190011
-0.1145624048
0.09551454683
0.02697855415
-0.01762326467
39.5779307
-0.1100346181
0.100207433
0.02245225313
-0.01865870378
39.57963586
-0.1048817388
0.1018682018
0.02072660447
-0.01942182223
39.57575889
-0.09800736968
0.1014967298
0.01962843218
-0.01924491688
39.57181936
-0.07544429353
0.08569266501
0.01568747941
-0.02199892654
39.43624423
0.09309909241
0.02491776495
0.02651837936
-0.008960133847
38.43635446
0.8723128379
0.2764862852
-0.05931278774
-0.08959770986
1.272598298
0.9275019306
41.45439204
-2.600691612
-2.617445215
44.83721856
-0.2640265671
-2.108875229
-47.9902103
4.25148574
43.17170988
0.2840567408
1.567658737
-1.084506977
43.06622211
0.02775656114
0.09665631108
-0.1603293263
43.08259507
0.03479575425
0.06625535759
-0.09890844541
43.10519638
0.04011461693
0.0527232945
-0.08197057388
43.12084473
0.04218285488
0.05284462467
-0.07768313873
43.13315425
0.04250336213
0.05333139464
-0.07676535562
43.14425335
0.04189824302
0.05416855905
-0.07730683171
43.15538598
0.04096249015
0.05544481063
-0.07895699491
43.16734734
0.04027262182
0.05727912671
-0.08164430148
43.18027992
0.03929754932
0.058747943
-0.0833095366
43.19237159
0.03604088148
0.05763261119
-0.07904463477
43.20017739
0.02957470805
0.0525277184
-0.06676839914
43.20129878
0.0208224034
0.04399873091
-0.04936493017
43.19695894
0.01044718931
0.03399838604
-0.03194884847
43.19181148
-0.001626914141
0.02523810775
-0.01914355945
43.19032925
-0.01439412211
0.01923846202
-0.01139114414
43.19227333
-0.02511457422
0.01492032157
-0.00556659865
43.19728748
-0.03376039367
0.01203141552
-0.0015092503
43.20536216
-0.04106946316
0.01036694875
0.000654666142
43.21608821
-0.04746066792
0.01015846837
0.0009431517878
43.22886453
-0.05308970466
0.01082071522
0.0001363216483
43.24231343
-0.05803946988
0.01271772554
-0.0009307392567
43.25521197
-0.06219337652
0.01556007146
-0.002038027959
43.26652602
-0.06563948999
0.01900521353
-0.003114274721
43.27457767
-0.06849261666
0.02432395468
-0.004292623676
43.27921846
-0.07068526829
0.02923744254
-0.005336557158
43.27926068
-0.07261641748
0.03569609436
-0.00669931974
43.2761254
-0.07463996297
0.04043847585
-0.007578375703
43.27021639
-0.07731281833
0.04731959374
-0.008815183196
43.26731444
-0.08091095182
0.05232101453
-0.009625010889
43.27321915
-0.08655467066
0.0611881673
-0.01087860911
43.29821769
-0.09368999664
0.06673406254
-0.01317700945
43.33906856
-0.1028382918
0.0586436759
-0.009127127907
43.37115028
-0.1140495922
0.01819542016
0.00971504385
43.34180747
-0.1260639953
-0.01811271125
0.09551143558
42.16791775
-0.1362197132
-0.03083430344
1.236503591
41.65524964
-0.143782309
-0.03593910273
0.5504286937
41.47966746
-0.1520711906
-0.005954401432
0.1983386231
41.44229273
-0.1595092529
0.01589090993
0.04978508631
41.44689452
-0.1643338948
0.03516821699
-0.0001502413148
41.45839402
-0.1661029649
0.04834342247
-0.01264666358
41.4675957
-0.1643065227
0.05606186544
-0.01552158331
41.4730649
-0.1591108077
0.06063237781
-0.0170273818
41.47459945
-0.1511996384
0.0639941672
-0.0192132802
41.47134852
-0.1415047306
0.06743167389
-0.02068595962
41.49115096
-0.1260001879
0.05551736177
-0.02476674921
41.6837814
-0.1152425102
0.02720152104
-0.01149269546
44.52834401
-0.369447139
-1.474366641
-0.1284372127
0.194604565
2.271873221
47.97628727
-4.641822703
47.43225197
-0.009845412711
-2.452795641
-49.32564599
4.092008703
45.07202296
0.03119233455
4.155999375
-1.542905807
48.84495966
-0.1475342348
-3.822298227
0.2246525252
48.81262836
-0.02633329551
-0.05193164924
0.1453922056
48.7849912
0.02719417037
-0.0035608651
0.04411869971
48.78348297
0.03408790071
0.02955952582
-0.01995609656
48.79497988
0.03419588124
0.04632080624
-0.04950996885
48.81094492
0.0328558563
0.05328768032
-0.06021006794
48.82831604
0.03058353566
0.05567177207
-0.06266364184
48.84726257
0.02790974572
0.05622645577
-0.06280980999
48.86826557
0.02398751349
0.05585412716
-0.06154675582
48.8887832
0.01785163708
0.0548119874
-0.05714003415
48.90379825
0.01039031993
0.05276600319
-0.04859628277
48.91170551
0.001717982514
0.04817996414
-0.03698240982
48.91423719
-0.008464221952
0.0409906644
-0.0246105139
48.91390835
-0.02156160246
0.03456856906
-0.01430462088
48.91311848
-0.03565326298
0.03021163853
-0.008162175625
48.9136365
-0.04872237019
0.02787555025
-0.004785331896
48.91640932
-0.06085129089
0.0269139988
-0.002595428263
48.92220418
-0.07220961507
0.02697444266
-0.001628653995
48.93140631
-0.08285801483
0.02810316894
-0.001907412539
48.94377896
-0.09274796817
0.03034269889
-0.003056575926
48.95820053
-0.1016309162
0.03381251603
-0.004642160682
48.97303187
-0.1092243273
0.03838463666
-0.006184673867
48.9866343
-0.1155776247
0.04398322313
-0.00764727766
48.9973505
-0.1204431025
0.05026328811
-0.009028968684
49.00384619
-0.1241807369
0.05739872262
-0.01039907661
49.00562318
-0.1269478898
0.06422755613
-0.01167335125
49.00275083
-0.1297203882
0.07089785158
-0.01294524441
48.99652917
-0.1329866187
0.07572060642
-0.0138252908
48.99027864
-0.1377948244
0.07739617768
-0.01426204608
48.98903069
-0.1448297262
0.07312765662
-0.01360549593
48.99931217
-0.1541980895
0.06322815087
-0.01300292743
49.02539869
-0.1664749911
0.04372883005
-0.006180118097
49.06653532
-0.1822271044
0.01718462071
0.009854096507
49.09087169
-0.2016093256
-0.04201809418
0.09322521042
48.06853481
-0.2198435343
-0.1599725562
1.265931844
47.66525883
-0.2320749605
-0.07261762723
0.5641846537
47.54372805
-0.2478469196
0.01061641972
0.2066879449
47.53223784
-0.2596828218
0.05401030743
0.05765103713
47.54993755
-0.2675493937
0.07666046608
0.008852803612
47.56962301
-0.2707441691
0.0894468078
-0.004493822959
47.58509164
-0.2685522439
0.09633911395
-0.007564763076
47.59562029
-0.2607086254
0.1004947674
-0.009428648281
47.60216258
-0.2486237253
0.1035059358
-0.01262738039
47.59438015
-0.2289762929
0.1101616927
-0.01491152541
47.53432298
-0.1526065207
0.1090455976
-0.02238630172
42.74840446
0.01981449335
4.657192039
-0.006334503461
46.77337798
-0.1474712032
-4.128037756
-0.1189124976
-0.08872896421
2.616369202
49.22768562
-4.787343541
47.85961642
0.004180704898
-2.521696951
-49.37251816
4.020572788
45.07461245
0.009515687823
4.226829484
-1.420148717
51.96623029
0.008985273231
-7.809892716
0.7617555614
52.37837691
0.01459937924
-0.965499936
0.5124208159
52.26442917
0.02593373336
-0.1029116062
0.2181199748
52.23851575
0.03004810408
-0.005625021708
0.03557844506
52.24181811
0.02882951795
0.03779706938
-0.03573285046
52.25527564
0.02665422523
0.05275957974
-0.06001525126
52.2714355
0.0237070665
0.0584436901
-0.06772685589
52.28812518
0.01981834889
0.0603244039
-0.06892244209
52.30472901
0.01432191124
0.06036617012
-0.06730414764
52.31921168
0.007253757045
0.05942160047
-0.0633061077
52.32889337
-0.000250649956
0.05658556795
-0.05562600848
52.33356058
-0.01044617678
0.05099002905
-0.04349275804
52.33416801
-0.02312696764
0.04358698943
-0.02953138739
52.33362338
-0.03874101917
0.03605261957
-0.01832823716
52.33521491
-0.05558504657
0.02981213655
-0.01147159332
52.34001332
-0.07202519081
0.02534777113
-0.006843034074
52.3482322
-0.08779964108
0.02228498989
-0.003555244127
52.36000566
-0.1027797926
0.02069342938
-0.001896377991
52.37520792
-0.116804084
0.02078642244
-0.002042320137
52.39305263
-0.1296276652
0.02239096917
-0.003355663807
52.41230849
-0.1410629921
0.02517033004
-0.004993916589
52.43144152
-0.1508758808
0.02911841933
-0.006599739428
52.44889436
-0.1588916537
0.03401204986
-0.008150925502
52.46295841
-0.1648315564
0.03987565001
-0.009551393214
52.47246821
-0.1689986635
0.04634098263
-0.01103323025
52.47650104
-0.1716907822
0.05314128706
-0.01243162549
52.47516677
-0.1738039751
0.05921212733
-0.01379490341
52.4695492
-0.1765123828
0.06388841664
-0.01474520359
52.46372551
-0.1801209124
0.06294416032
-0.01479528083
52.45997176
-0.1830948424
0.05571595108
-0.01369824822
52.46999227
-0.1944480268
0.0411862131
-0.01095836993
52.49284823
-0.2055629662
0.0156355547
0.000594895573
52.52257076
-0.2199667829
-0.02834271098
0.03635821606
52.51925272
-0.2372914333
-0.1108644291
0.1498630176
52.37573389
-0.2541085477
-0.2759337495
0.4537158353
52.30666343
-0.2705541585
-0.1797342198
0.2872822633
52.30536986
-0.2880939118
-0.08146510805
0.1230032718
52.33514136
-0.3025130115
-0.02888221032
0.04193878838
52.37305095
-0.3147421721
-0.00495805414
0.01423840903
52.40373308
-0.3141239737
0.00569487545
0.007000258967
52.42904103
-0.3104429022
0.01197909762
0.004600732445
52.44824862
-0.2998188112
0.01795785847
0.001941789641
52.46161808
-0.285316824
0.02518733092
-0.001866700817
52.47319557
-0.268267712
0.03214844956
-0.004437640525
51.71900286
-0.2306524923
0.8467331955
-0.01449846932
42.778944
-0.1784201193
9.135165692
0.003124333004
47.11992194
-0.1435770207
-4.231508674
-0.1133648971
-0.114088798
2.673237505
49.26387323
-4.791829175
47.90802828
0.003342070098
-2.523533324
-49.38685858
4.003202476
45.06911065
0.006889748368
4.229540927
-1.387997198
51.98417402
0.01265305883
-8.007598135
1.08886717
53.07013505
0.01680673585
-1.823548909
0.7353806784
53.84553881
0.02061439248
-1.092775062
0.322690829
53.81471995
0.02248328363
-0.03462269638
0.07300657774
53.8183207
0.0209395534
0.02895016331
-0.0246607361
53.83237923
0.01762352411
0.04915242131
-0.05418002965
53.85072459
0.01337389998
0.05514997657
-0.0631619381
53.87056141
0.00809310998
0.05649281403
-0.06460412763
53.8913475
0.0007548441243
0.0560835908
-0.06330234325
53.91037418
-0.00739037268
0.0549665402
-0.05934878903
53.92514194
-0.01645096026
0.0528341473
-0.05140128869
53.93360473
-0.02714935712
0.04807905787
-0.03983832939
53.93725222
-0.04076692672
0.04086398274
-0.02687117422
53.93850666
-0.05734872181
0.03354198589
-0.0161883876
53.94031569
-0.07583896481
0.02812089202
-0.009675681937
53.94393098
-0.09515377148
0.02474359198
-0.005229980842
53.95023368
-0.1145989078
0.02253133667
-0.00203449169
53.96012697
-0.1336778029
0.02152050353
-0.0005154897423
53.97413113
-0.1519686266
0.02191104651
-0.0007503872614
53.99200828
-0.169027694
0.02370520267
-0.002182067182
54.01254363
-0.1843413501
0.02670075944
-0.003957604745
54.03371806
-0.1972477763
0.0308449038
-0.005647393779
54.05394534
-0.2079350256
0.03601649991
-0.007200572022
54.07091392
-0.2151945231
0.04206052047
-0.008666426441
54.08296411
-0.2197093256
0.0487736571
-0.01011366471
54.08893071
-0.221603779
0.05543339167
-0.01148765313
54.08829003
-0.2215969877
0.06128396595
-0.01285043972
54.08306189
-0.2219835301
0.06423919691
-0.01354070885
54.07704701
-0.2229406837
0.06198662536
-0.01315354504
54.07941874
-0.2260841413
0.0522660157
-0.0116500948
54.08969385
-0.2308635209
0.0344195866
-0.008281231883
54.11437547
-0.2375538199
0.006952292856
0.0003550965595
54.15565331
-0.2469075516
-0.03726697322
0.02292809691
54.19708726
-0.2589896054
-0.09578974674
0.07605125214
54.21614972
-0.2720831756
-0.1579950605
0.1569051498
54.24640185
-0.2865913402
-0.1304764677
0.116258069
54.29037073
-0.3022856283
-0.08978517916
0.06000572886
54.33937818
-0.31669233
-0.06511111155
0.03027852705
54.38206877
-0.3272610221
-0.04970654267
0.0195315705
54.42096186
-0.3312597463
-0.03764906928
0.01588779346
54.45458677
-0.3285575841
-0.02922208943
0.01370762361
54.48188082
-0.3173821189
-0.02033295634
0.01059801096
54.5010393
-0.3013773298
-0.008997446049
0.005894324447
53.55730474
-0.2785291147
0.9491402904
0.004852040847
51.96654375
-0.2377900659
1.603370834
-0.005476111237
42.80620839
-0.1815968302
9.150087469
0.01342144945
47.16399146
-0.1367643391
-4.258562519
-0.1060348373
-0.1059432465
2.645204478
49.30344816
-4.79280693
47.91549786
0.00197987689
-2.52356338
-49.39009194
3.999519895
45.07016333
0.004178536681
4.228266456
-1.380220536
51.924224
0.007984869745
-8.085470818
1.236078524
52.99632745
0.01055280147
-1.89893127
0.8330819191
54.69500165
0.0127574191
-2.057152244
0.3663351948
55.09201251
0.01403366135
-0.4745223161
0.0859612802
55.09850853
0.01368064222
0.02290318415
-0.02214007299
55.11136214
0.0104565509
0.04797822294
-0.05366461491
55.12741408
0.005630557934
0.05512450252
-0.0634328358
55.14365566
-5.071673194e-05
0.05709589985
-0.06519334968
55.1595489
-0.008636176288
0.05739468773
-0.06389658105
55.17357481
-0.01805843497
0.05673663902
-0.06009411761
55.1836394
-0.02816118557
0.05413087762
-0.05248485602
55.18889227
-0.04069552557
0.04890548329
-0.04061175935
55.19005285
-0.05662743071
0.04195507639
-0.02725473429
55.19021287
-0.07569851734
0.03479210046
-0.01660188937
55.19245881
-0.09709251442
0.02886819484
-0.009860171218
55.1976964
-0.1198684671
0.024454284
-0.004976788586
55.20657361
-0.1432128679
0.02123643569
-0.001499326562
55.21970512
-0.166440893
0.01950740279
0.0001245539938
55.23742443
-0.1889902957
0.01940067507
-9.797453186e-05
55.25935791
-0.2102779602
0.02075668572
-0.001439578016
55.28431097
-0.2295777004
0.02340416099
-0.003120673415
55.31054283
-0.2459280141
0.02719555935
-0.004747127909
55.33527395
-0.2587112662
0.03225448742
-0.006209524275
55.35667767
-0.2669772378
0.03800336507
-0.007624690773
55.37233811
-0.2711783016
0.04477998514
-0.008971974643
55.38133864
-0.2711324847
0.05104860827
-0.01052078732
55.48401349
-0.2684150492
-0.0440334147
-0.0118241202
55.47898388
-0.2648953037
0.06014361513
-0.01220331392
55.25438448
-0.2596048878
0.27295979
-0.01169827145
55.1131546
-0.2555485582
0.1801033836
-0.009411309913
55.11217139
-0.2534298592
0.02923797567
-0.005690878079
55.13798147
-0.2536641447
-0.01033653435
0.0006346785582
55.17815567
-0.2557303227
-0.04379737556
0.01244279428
55.24335166
-0.2587742275
-0.09878090651
0.03336699606
55.31620434
-0.2626682257
-0.1383031442
0.05603161845
55.38327653
-0.268991667
-0.1334856738
0.04881019157
55.44135311
-0.2787295762
-0.118228148
0.03658940617
55.49666148
-0.2897443831
-0.11369888
0.03143861432
55.69189212
-0.3003495934
-0.2517276818
0.02958048238
55.96337577
-0.3070709225
-0.323227721
0.02754947506
56.00068292
-0.3062480414
-0.08501659019
0.02539365023
55.93197527
-0.2961248635
0.02516514217
0.02227820137
55.52003896
-0.2774060286
0.3708412156
0.01711721071
53.61355969
-0.2503172781
1.861935535
0.01632677961
52.01899815
-0.2129057031
1.563175895
0.006497224283
42.84136117
-0.157976728
9.131581377
0.02243206651
47.20356009
-0.1160840952
-4.282384181
-0.1004966138
-0.08555843437
2.634432489
49.34471445
-4.795971818
47.9156922
0.001366722785
-2.523350234
-49.39051431
3.998785773
45.06760421
0.002835574792
4.228235618
-1.378804489
51.89520503
0.005188443532
-8.108698263
1.283894078
52.95631771
0.006539189513
-1.920752916
0.8636540118
54.65797833
0.007126825324
-2.075034994
0.3790051593
55.48112834
0.007072708476
-0.9056344777
0.0894456304
55.88012122
0.006054288292
-0.3696617911
-0.02170448975
55.89414517
0.002754884784
0.04682842159
-0.05315043862
55.91093443
-0.002681878277
0.05419932177
-0.06267585278
55.92904862
-0.009630708861
0.05582594374
-0.06435980273
55.94669828
-0.01902931779
0.05570173947
-0.06295789571
55.96206299
-0.02938816557
0.05498403313
-0.05901860241
55.97320167
-0.04067065597
0.05268969767
-0.0513184688
55.97914712
-0.05457546612
0.04756194896
-0.03962700274
55.98060632
-0.07199122246
0.04031852828
-0.02641344951
55.98044854
-0.09287088157
0.03308193251
-0.01575132198
55.98173442
-0.1167520502
0.02744973675
-0.009075621996
55.98550775
-0.1428892113
0.02351088089
-0.004263043234
55.99284385
-0.1703489736
0.0206391299
-0.0008387049049
56.0048795
-0.1982822574
0.01901770973
0.0007884177491
56.02251624
-0.2259788238
0.01877481121
0.0005773649894
56.04575372
-0.2526342383
0.01983457965
-0.0007154427494
56.07350125
-0.2771163716
0.02215455167
-0.002363171896
56.10396106
-0.2980436637
0.02565832139
-0.00400242401
56.13423865
-0.3141068475
0.03045514992
-0.005337275142
56.16141161
-0.3237213954
0.03629595072
-0.006725059875
56.18193971
-0.3264852399
0.04299425474
-0.008215853341
56.19346388
-0.3233403586
0.0503974235
-0.00971439976
56.0889433
-0.3144683672
0.1615027725
-0.01092957307
55.9974124
-0.3027435718
0.1407739646
-0.01139631791
55.5515221
-0.289545803
0.4864104057
-0.01058136883
55.26921246
-0.2772454465
0.3117284339
-0.007724498821
55.26622941
-0.2657005338
0.01867826351
-0.003426615413
55.28125133
-0.2557389333
-0.01524530856
0.002295512333
55.31074954
-0.2457737131
-0.04963849405
0.01018075475
55.37707818
-0.2354952198
-0.1100423537
0.0204315747
55.46388779
-0.2267496403
-0.1525225564
0.02979018912
55.54263172
-0.2246630683
-0.1554049088
0.03232668401
55.6049833
-0.2301137492
-0.1450012687
0.03402942532
55.66367519
-0.2394246564
-0.1456783609
0.03666046009
56.00753242
-0.2495099319
-0.4322576892
0.03755523363
56.51134939
-0.2572180703
-0.5894559121
0.03577951367
56.64713121
-0.2579640727
-0.2178384124
0.03376565289
56.39454149
-0.2487033862
0.1743954169
0.03076502001
55.54989873
-0.2286917413
0.7705980864
0.02532289995
53.6472191
-0.2001764783
1.82782667
0.02470663404
52.05282166
-0.1652378594
1.531928307
0.01479706447
42.87297419
-0.1146305977
9.104960105
0.03153722616
47.23995335
-0.07953912082
-4.311704175
-0.09182118633
-0.05272789293
2.610842785
49.39317351
-4.796893855
47.91594719
0.0006179182597
-2.523458324
-49.39045187
3.9987121
45.06801648
0.001358596099
4.227916196
-1.378508299
51.89017032
0.002504116873
-8.115493554
1.296024246
52.94980554
0.002899077263
-1.926990147
0.87099523
54.65334646
0.002498229794
-2.080984521
0.3820723918
55.47784433
0.001680272314
-0.9093476685
0.09024245895
56.27241289
-0.0003699839613
-0.7666673013
-0.02147673156
56.52102334
-0.003387667714
-0.1894264879
-0.05304113056
56.53560892
-0.00825728731
0.05358985703
-0.06259971321
56.55058083
-0.01587455733
0.05559997782
-0.0643277023
56.56487081
-0.02625496526
0.05584644742
-0.06291041031
56.5765775
-0.03724952169
0.05532660878
-0.05917153028
56.58428983
-0.04965753862
0.05289698918
-0.05162200796
56.58702212
-0.06521410351
0.04773804364
-0.03983122739
56.58563715
-0.08462045018
0.04059201134
-0.02657735313
56.58344257
-0.1080151756
0.03330254964
-0.01596319913
56.58347286
-0.1350447606
0.02740009866
-0.009137239958
56.58676213
-0.1649626685
0.02295805649
-0.004173434431
56.59431205
-0.1968407792
0.01960531383
-0.0006629976133
56.60732589
-0.2298064123
0.01747283594
0.001037897342
56.62692266
-0.2631338646
0.01664903794
0.0009096265291
56.65332807
-0.2958384043
0.01705022053
-0.0002511257481
56.6857311
-0.3264437198
0.01862384332
-0.001699319176
56.72237413
-0.3530380232
0.02145281433
-0.003101418004
56.76014138
-0.3730194185
0.02557212956
-0.004426919853
56.79567394
-0.3846326273
0.0311715467
-0.005793143451
56.82385342
-0.3857602089
0.03842069817
-0.007325584943
56.60176171
-0.3759706525
0.2836429634
-0.008921601416
56.18935419
-0.3583563944
0.4662917129
-0.00999713897
56.01151165
-0.3374532289
0.2228667844
-0.01031630139
55.56038799
-0.3156157061
0.4867042542
-0.009513105228
55.27873985
-0.2950100182
0.3058669263
-0.00645644698
55.29123955
-0.2772288306
0.0007083880033
-0.001682709076
55.30994968
-0.2594737407
-0.01946204411
0.004484342558
55.35290771
-0.2376298701
-0.06305892823
0.0119536038
55.42261046
-0.2121582387
-0.112234194
0.0191912407
55.49968176
-0.1849547623
-0.1431016349
0.02423100817
55.56662588
-0.1675061152
-0.153633257
0.02952813266
55.62233776
-0.1635178891
-0.1588758274
0.03656194397
55.67711828
-0.1676261472
-0.169594334
0.04300945913
56.01956575
-0.1762021141
-0.4610974291
0.0453361685
56.52378092
-0.1847007731
-0.6203978479
0.04365936615
56.75276998
-0.1875456663
-0.3407317199
0.04131737158
56.51400117
-0.1824085868
0.1347178583
0.03774912364
55.57303964
-0.1678786646
0.8483783792
0.03176267727
53.67540129
-0.1450824626
1.813421904
0.02911690124
52.08994647
-0.1171022902
1.519678401
0.01763686242
42.90636687
-0.07465138476
9.111522308
0.03207403378
47.27529389
-0.04634569244
-4.308327992
-0.09379352782
-0.02161575296
2.620947655
49.42469881
-4.801464991
47.91533549
0.0002482035929
-2.523391243
-49.39029501
3.998720813
45.06669422
0.0005745389845
4.227907644
-1.378482134
51.88631921
0.0009229801607
-8.116020487
1.297976873
52.94393094
0.0006243693726
-1.927391817
0.8720549754
54.64608052
-0.0006853200862
-2.081427584
0.3824617491
55.46935607
-0.002249291334
-0.9096270262
0.09028126318
56.26349814
-0.005596412198
-0.7675593798
-0.02135599892
56.7476373
-0.008970609494
-0.4254000911
-0.05315584958
56.97828765
-0.01432679351
-0.1618407287
-0.06273980077
56.99373476
-0.02219710558
0.05521237222
-0.06433660183
57.00742854
-0.03274680239
0.05555126934
-0.06275284454
57.01807682
-0.04402773448
0.05501371384
-0.058883383
57.0245406
-0.05725790647
0.0524917725
-0.05135474362
57.02574067
-0.07389301467
0.04712634752
-0.03964704928
57.02244361
-0.09475005835
0.0397917443
-0.02636460916
57.01780377
-0.1201706922
0.03242892646
-0.01563310648
57.01492065
-0.1499514559
0.02653510092
-0.008744822423
57.01515792
-0.1834633536
0.02204722143
-0.003783351292
57.02004345
-0.2198730661
0.01842142169
-0.0002741936857
57.03136199
-0.2583697987
0.01571673374
0.001528580283
57.05094004
-0.2983379767
0.01404664607
0.001579842604
57.07974801
-0.3387440589
0.0134581485
0.0006398986533
57.03532788
-0.3766656624
0.09522211079
-0.0005797938188
56.98041629
-0.4088998453
0.1123960554
-0.001622536727
56.98986466
-0.4333168398
0.0534857153
-0.002636722854
57.03537417
-0.4466930037
0.02036819549
-0.003817512511
57.07303029
-0.4462940863
0.02831527061
-0.005437837954
56.62184959
-0.4306573872
0.513139451
-0.007272625867
56.21435987
-0.4025327667
0.4601263707
-0.008461196912
56.03982483
-0.3712196172
0.2174278509
-0.009128183642
55.59116001
-0.3383384533
0.4799468781
-0.008561719578
55.30972479
-0.3072266488
0.2988674701
-0.005218215835
55.31655393
-0.2790858279
-0.00458616381
-0.0003880701479
55.33800892
-0.2520140368
-0.03470401664
0.005786123909
55.36441283
-0.2208227346
-0.05652448843
0.01330987288
55.42563603
-0.1821870777
-0.1119986283
0.02080063148
55.49523116
-0.1383564363
-0.1422583134
0.02606205677
55.56001088
-0.1035913399
-0.1631044387
0.03440501156
55.61438022
-0.08465547918
-0.1759645634
0.04272783432
55.67169525
-0.08276036025
-0.1925655864
0.05037832972
56.0198097
-0.0885178044
-0.4895465493
0.05374297497
56.5346681
-0.09724541745
-0.6548295385
0.05250955507
56.68364484
-0.1010603726
-0.2863419447
0.05087408776
56.64599402
-0.09722051056
-0.09540375965
0.04785927536
55.60511932
-0.08253023994
0.9126810753
0.04283797506
53.7115959
-0.06105883819
1.767695179
0.04179941537
52.12405962
-0.03604709326
1.475769693
0.0307076914
42.94117779
-0.003522015656
9.064309105
0.0474396435
47.31618049
0.0143011068
-4.356685298
-0.07896514413
0.03336923076
2.578527882
49.48153869
-4.798871319
47.91522086
-0.0001458015311
-2.523435631
-49.39014117
3.998750263
45.06660891
-0.000171814132
4.227791594
-1.378433059
51.88612084
-0.0004748752032
-8.116422723
1.29830887
52.9435438
-0.001212969806
-1.927887595
0.8723021789
54.6451798
-0.002898936405
-2.082040841
0.3826186359
55.46772996
-0.004825493022
-0.9104589128
0.0904851889
56.26057516
-0.008627630809
-0.7687047116
-0.02110901107
56.74350902
-0.01220823727
-0.4267312306
-0.05296472377
57.18772895
-0.01834118101
-0.3773309216
-0.06287433314
57.20095954
-0.02588114572
0.05468996075
-0.06423619078
57.21160386
-0.03606411796
0.05533947618
-0.06266613094
57.21920726
-0.04743543133
0.05474941442
-0.05894473171
57.22257737
-0.06122942004
0.05206468591
-0.05146286698
57.2204895
-0.07864624693
0.04658192523
-0.03974039752
57.21379631
-0.1006765474
0.03905791393
-0.02643778563
57.20564478
-0.1277706388
0.03136120863
-0.01560929593
57.19913428
-0.1598547683
0.02495732897
-0.008543064471
57.19590207
-0.1964796499
0.01973040469
-0.003481447175
57.19785648
-0.2370651355
0.01510979487
0.0001283383922
57.20753101
-0.281262125
0.0111194577
0.002098790903
57.14582791
-0.3280864956
0.08903172486
0.00242031211
57.07873504
-0.375767054
0.1021608627
0.001955336713
56.96200743
-0.4219784088
0.1608180027
0.001222581639
56.77356768
-0.4623062107
0.2412171781
0.0006290365658
56.73771411
-0.4925340979
0.09488748601
0.0001832785508
56.79810273
-0.5091646474
0.002687330428
-0.0006045716345
56.84973402
-0.5066747587
0.01108223798
-0.002332868052
56.64684357
-0.4841278057
0.2608541462
-0.004493863319
56.24584296
-0.4447214122
0.4494959093
-0.006307014267
56.07381941
-0.4006807847
0.2091114981
-0.007628486305
55.63175677
-0.3575291252
0.4683689825
-0.007117647297
55.36053572
-0.3220961476
0.2897466813
-0.003658474541
55.38787471
-0.2896264265
-0.01907028462
0.002269363591
55.43872236
-0.2543243365
-0.05825063051
0.009710758529
55.47349696
-0.2063645296
-0.06674824949
0.01751113171
55.5319389
-0.1388139371
-0.1249395852
0.02312158594
55.56434873
-0.05713809172
-0.1402590854
0.02662690363
55.60184845
-0.005098962956
-0.1704683166
0.03447404682
55.63633727
0.02868786141
-0.1957795236
0.04794106898
55.68112572
0.03449383736
-0.2177465235
0.05569848022
55.99341354
0.02817827693
-0.4887764167
0.05978662243
56.27934253
0.01586452937
-0.4584332356
0.05939012692
56.33864346
0.005260500827
-0.2231784709
0.05755088744
56.39710197
-0.0006483866983
-0.2079338883
0.05289700506
55.61597764
0.002882333192
0.650358837
0.04534733175
53.73180489
0.01275632429
1.769064847
0.04128806483
52.14955318
0.02737478526
1.492332236
0.02649444155
42.96194389
0.04384982625
9.099855939
0.04037773046
47.33682887
0.05469057689
-4.32761811
-0.08765726204
0.07028148122
2.610652402
49.49430962
-4.805045819
47.91479804
-0.0003339887286
-2.523396552
-49.38997219
3.998759253
45.06583851
-0.0005526334239
4.227775044
-1.378434483
51.88459143
-0.001299624835
-8.116162006
1.29823411
52.94109476
-0.00230691687
-1.927639442
0.8722302412
54.64178778
-0.00433247712
-2.081864016
0.3826047315
55.46316268
-0.006426880525
-0.9102518374
0.09047855942
56.25487037
-0.01056993204
-0.7687066601
-0.02105846432
56.73662254
-0.01420121184
-0.4268058118
-0.05295309735
57.17921365
-0.02064859455
-0.3773922517
-0.06289115359
57.19076256
-0.02793407236
0.05465922445
-0.06415488919
57.19943592
-0.0375800622
0.05536611484
-0.06252317345
57.20484238
-0.04877271837
0.05471357509
-0.0587823626
57.20560214
-0.06256759341
0.05190352774
-0.05132469574
57.20040677
-0.08014667381
0.04633116423
-0.03963493182
57.18991613
-0.102611791
0.03871463671
-0.02628829265
57.17716486
-0.1305501136
0.03081685452
-0.01528564612
57.16543135
-0.1640898449
0.02401907585
-0.008050022899
57.15679761
-0.2030469027