/*--------------------------------*- C++ -*----------------------------------*\
| =========                 |                                                 |
| \\      /  F ield         | OpenFOAM: The Open Source CFD Toolbox           |
|  \\    /   O peration     | Version:  2.2.1                                 |
|   \\  /    A nd           | Web:      www.OpenFOAM.org                      |
|    \\/     M anipulation  |                                                 |
\*---------------------------------------------------------------------------*/
FoamFile
{
    version     2.0;
    format      ascii;
    class       volVectorField;
    location    "2";
    object      U;
}
// * * * * * * * * * * * * * * * * * * * * * * * * * * * * * * * * * * * * * //

dimensions      [0 1 -1 0 0 0 0];

internalField   nonuniform List<vector> 
86889
(
(15.03496538 0.006001127368 0.004893492776)
(15.05345346 0.004739117098 0.006206234058)
(15.05658431 0.001917958256 0.006378702265)
(15.06187633 0.001655697045 0.004680313152)
(15.0691288 0.0003696208265 0.002646477903)
(15.07659881 -0.00187859281 0.0004089620997)
(15.08211914 -0.003672907599 -0.001370127686)
(15.08663109 -0.004874308997 -0.002557474737)
(15.09114491 -0.005651060622 -0.003257713163)
(15.09612404 -0.005998572455 -0.003472717101)
(15.10232084 -0.005969240502 -0.003541672081)
(15.10839844 -0.005878021823 -0.003890107989)
(15.11149467 -0.005953473006 -0.004270157805)
(15.11164837 -0.006185369185 -0.004541253148)
(15.10876632 -0.006661422376 -0.00488561111)
(15.10334705 -0.006781817541 -0.004593497165)
(15.09757839 -0.006229717206 -0.003216776368)
(15.09383732 -0.005282879977 -0.001388014043)
(15.09250595 -0.004575606706 -5.709294443e-05)
(15.0928591 -0.004211257373 0.0009519156527)
(15.09501857 -0.004274322631 0.001693739675)
(15.09878996 -0.004751085418 0.002099038886)
(15.10382698 -0.0054334367 0.002302645924)
(15.1097069 -0.00610250369 0.002503048262)
(15.11588028 -0.006683767599 0.002791165017)
(15.12193672 -0.007081659599 0.003254069032)
(15.12737409 -0.007378497284 0.003908322269)
(15.13204226 -0.007592445658 0.004596624162)
(15.13593338 -0.007840944286 0.005277360989)
(15.13887368 -0.008120579549 0.005848591957)
(15.14186185 -0.008505711894 0.006150728712)
(15.14362716 -0.008928014612 0.006276900457)
(15.14616473 -0.00999613665 0.006176812508)
(15.14784064 -0.0111948545 0.006340995105)
(15.15410494 -0.01258235282 0.006978081412)
(15.16343199 -0.01352151144 0.006354849471)
(15.17789796 -0.01660563745 0.007154630178)
(15.19066375 -0.01889692788 0.007585783333)
(15.20097749 -0.01976460298 0.007579283142)
(15.21026044 -0.02023323762 0.00761202519)
(15.21906527 -0.02058103352 0.008582678926)
(15.22742683 -0.02069123092 0.01045465881)
(15.23534444 -0.02031609067 0.01273117198)
(15.24193422 -0.01931855119 0.014920095)
(15.24543252 -0.01823839605 0.01619569414)
(15.24828503 -0.0169614704 0.01699566355)
(15.24454697 -0.01470043025 0.01801421693)
(15.24804217 -0.01339655043 0.01752410176)
(15.20611512 -0.01341042107 0.0140064442)
(15.32181311 -0.03879568916 -0.01486887451)
(15.0178215 0.007450160254 0.005879025269)
(15.0283491 0.01087232111 0.005869835955)
(15.035268 0.01372619284 0.005793317272)
(15.0423947 0.01797689239 0.005905466215)
(15.04902003 0.02124320773 0.005295833328)
(15.05486229 0.02298506062 0.004162379427)
(15.05946882 0.02372355679 0.00324397258)
(15.06329362 0.02397475298 0.002742847494)
(15.0670446 0.02403586764 0.002525470235)
(15.07095439 0.02410255089 0.002603955983)
(15.07526732 0.02412009021 0.002760909973)
(15.07982024 0.02343546652 0.002355093251)
(15.0836196 0.02108909251 0.001169852744)
(15.08535022 0.01700231612 -0.0003438393346)
(15.08455897 0.01198409521 -0.00152689011)
(15.0824264 0.006484751759 -0.001835891561)
(15.08114713 0.001109480364 -0.001218916456)
(15.0815224 -0.003349207622 -3.697467903e-06)
(15.08314105 -0.006728046195 0.001125498844)
(15.0859672 -0.009403075442 0.001926796331)
(15.0900081 -0.01156484194 0.0023840497)
(15.095174 -0.01333413618 0.002574207846)
(15.10117485 -0.01477774159 0.002677139126)
(15.10754323 -0.01593493234 0.00286625574)
(15.11404067 -0.01691853461 0.003260209427)
(15.12009062 -0.01768165588 0.003828498828)
(15.12568849 -0.01830086883 0.004592410059)
(15.13021887 -0.01882340835 0.005339610662)
(15.13414174 -0.01941329812 0.00613795017)
(15.13702578 -0.02006362364 0.006668222871)
(15.13962101 -0.02110509829 0.007031619825)
(15.14226655 -0.02268896368 0.007017704801)
(15.14586719 -0.02487266805 0.00689943333)
(15.15043888 -0.02782629761 0.006078284964)
(15.15890308 -0.03132180872 0.006750777487)
(15.16424408 -0.03415704453 0.003576556114)
(15.18389008 -0.03826283409 0.003539243407)
(15.19659973 -0.0417664088 0.004685790512)
(15.20591377 -0.04449658937 0.005073868287)
(15.21372111 -0.04688783789 0.005168492711)
(15.22168789 -0.04858304737 0.005954810965)
(15.23010368 -0.04920403808 0.007472909767)
(15.23771692 -0.04869880654 0.0088907673)
(15.24383805 -0.04712481959 0.01015797083)
(15.24774028 -0.04479043836 0.01131772211)
(15.25068081 -0.04177774717 0.01251536405)
(15.24804746 -0.03706456676 0.01386673467)
(15.25168287 -0.03369606477 0.01560089855)
(15.21990717 -0.03170108278 0.01645772786)
(15.2805363 -0.02005873093 -0.005074729345)
(15.01641774 0.003312469966 0.00603974031)
(15.02267328 0.004848633514 0.007281490018)
(15.02749521 0.005833093935 0.01125369676)
(15.03397969 0.006390126452 0.008479064564)
(15.04084391 0.006617501501 0.004405801879)
(15.04697009 0.0061600125 0.002411324017)
(15.05188879 0.005624196435 0.002520651717)
(15.05682779 0.004913390729 0.002828569866)
(15.06200562 0.004131460405 0.00268009953)
(15.06752573 0.003511162835 0.002296439746)
(15.07366219 0.002732753125 0.001713602336)
(15.08051701 0.001119238043 0.0008576300843)
(15.08624172 -0.0009249488297 2.335056277e-05)
(15.08964632 -0.002740419382 -0.0005552333825)
(15.09122216 -0.004719930751 -0.0008832242865)
(15.09145257 -0.007359917069 -0.0008172104579)
(15.09112818 -0.01022464369 -0.0001954321586)
(15.09113565 -0.01285829342 0.0008460729615)
(15.09186282 -0.01528795775 0.001896749791)
(15.09355276 -0.01762704639 0.002551732187)
(15.0964698 -0.01994938911 0.002827704281)
(15.10071739 -0.0222340024 0.002874416977)
(15.10612353 -0.02441072575 0.002942246766)
(15.11225193 -0.02634796102 0.003126609184)
(15.11871146 -0.02798996163 0.003516371991)
(15.12490317 -0.02932069666 0.004069373128)
(15.13060097 -0.03036687439 0.004779482644)
(15.13518387 -0.03120322886 0.005519904404)
(15.13895243 -0.03203561106 0.006239597122)
(15.14150734 -0.0329977814 0.00669367339)
(15.14352909 -0.03438554716 0.006964730222)
(15.14556815 -0.0364215647 0.006642748793)
(15.14863082 -0.03902783776 0.005900068459)
(15.15305083 -0.04226696925 0.003962055581)
(15.1607143 -0.04598820806 0.003141689559)
(15.1663927 -0.05078710934 -0.001166339948)
(15.1846641 -0.05497755088 -0.002858811757)
(15.19714046 -0.05886169978 -0.003242853518)
(15.20668538 -0.06256991409 -0.003988108339)
(15.21528064 -0.06571363299 -0.004410701829)
(15.224495 -0.06775331138 -0.003600385622)
(15.23447104 -0.06847310632 -0.002115377008)
(15.24340183 -0.06776243907 -0.0008664173962)
(15.25100638 -0.06568284556 0.0003107232411)
(15.25578108 -0.06246307027 0.001632865649)
(15.26087595 -0.05869216899 0.002815950769)
(15.25451431 -0.05236513618 0.00432212021)
(15.27243156 -0.04636783853 0.005617664678)
(15.22239051 -0.04241050902 0.007771500564)
(15.2749835 -0.03690379668 -0.01222194628)
(15.016141 0.002218312542 0.005758865195)
(15.02338081 0.004361360895 0.006236225334)
(15.02842379 0.007568099397 0.01022923803)
(15.03721875 0.01015149337 0.007659399961)
(15.04379751 0.01223801629 0.006396251726)
(15.04929581 0.01319742029 0.005098384328)
(15.05464111 0.01355188688 0.004376644637)
(15.05896967 0.01356505086 0.005117249957)
(15.0633856 0.01320785603 0.005877291034)
(15.06808341 0.01246561984 0.005916060681)
(15.07307624 0.01118810244 0.005435135543)
(15.07768917 0.009504137063 0.004796465159)
(15.08120223 0.007490266386 0.004015846154)
(15.08335226 0.004645034409 0.00294410949)
(15.08396098 0.0006079327337 0.001874626425)
(15.08369576 -0.004435526815 0.001303823085)
(15.08370673 -0.009768504501 0.001435792832)
(15.0846959 -0.01476272028 0.002120724781)
(15.08678262 -0.01944519319 0.002698188979)
(15.08995748 -0.0238151362 0.002930886199)
(15.09430506 -0.02784629981 0.002967953454)
(15.09979979 -0.03148540929 0.002934744692)
(15.10622193 -0.03468538595 0.002954777611)
(15.11311787 -0.0373923755 0.003128935822)
(15.12024219 -0.0396432491 0.003537308339)
(15.12686535 -0.04135006107 0.004142148604)
(15.13292923 -0.04262734529 0.004935750888)
(15.13776061 -0.04352293733 0.00575922294)
(15.14146422 -0.04430741386 0.006536265414)
(15.14376922 -0.04523389552 0.007036272027)
(15.14517565 -0.04650332909 0.007084814392)
(15.14653847 -0.04841818136 0.006327423571)
(15.14877075 -0.0509911683 0.004505604272)
(15.15255649 -0.05438551718 0.001116469231)
(15.1585023 -0.05857070013 -0.003063703214)
(15.16617777 -0.06419175371 -0.007232471279)
(15.17732255 -0.06913445912 -0.01061688227)
(15.18825543 -0.07432512328 -0.01371208243)
(15.19837859 -0.07977540139 -0.01692552962)
(15.20903863 -0.08427447299 -0.01920426448)
(15.22073486 -0.08700509319 -0.01993867488)
(15.23316025 -0.08785585409 -0.01964541201)
(15.24410111 -0.08690618261 -0.01900153879)
(15.25388875 -0.08426147855 -0.01774225817)
(15.26041886 -0.08041424378 -0.01586603316)
(15.26725461 -0.07620381891 -0.01346860343)
(15.26437099 -0.070254825 -0.01014370214)
(15.28187663 -0.06078437035 -0.006326857806)
(15.23288763 -0.053770348 -0.0009135530198)
(15.28702322 -0.04538405558 -0.01905688524)
(15.01619606 0.001402096828 0.006018730416)
(15.02230418 0.002637320393 0.006207210967)
(15.02625358 0.003994164231 0.01042724442)
(15.03461054 0.0047382335 0.007754390981)
(15.04002409 0.005331621618 0.005735092452)
(15.04423054 0.005330939999 0.00462239935)
(15.04871748 0.004370534844 0.003369416436)
(15.05332367 0.003159105934 0.003727531466)
(15.05814853 0.001865579392 0.004350155642)
(15.0634196 0.0003993703582 0.004298667512)
(15.06918788 -0.001497593289 0.003791483495)
(15.07509524 -0.003934450434 0.003087914816)
(15.07989452 -0.006446128381 0.002344457326)
(15.08312515 -0.008915282059 0.001591288738)
(15.08481176 -0.01188796838 0.000860825812)
(15.08528746 -0.01559872373 0.0004473447437)
(15.08552344 -0.01979113387 0.0006677314705)
(15.08629842 -0.02417965123 0.001464563997)
(15.08781248 -0.02861466697 0.002202551632)
(15.09025248 -0.03302849791 0.002613249442)
(15.09392374 -0.03735919748 0.002780803182)
(15.0989592 -0.04151730203 0.002841426046)
(15.10522533 -0.04537772223 0.002934143734)
(15.11228395 -0.04876465457 0.00316176696)
(15.11977776 -0.05159362238 0.003589574614)
(15.12698088 -0.05368932414 0.004219950249)
(15.13348851 -0.05507990799 0.005019598169)
(15.13869669 -0.05587032304 0.005857236127)
(15.14243064 -0.05629667133 0.006639214481)
(15.14450583 -0.05677404355 0.007036919057)
(15.14532795 -0.05741214353 0.006797070598)
(15.1460739 -0.05868970587 0.005326240853)
(15.14762177 -0.06047816341 0.002276419675)
(15.15058332 -0.06285126178 -0.002607691309)
(15.15550792 -0.06596862323 -0.008653167497)
(15.16252598 -0.06962881352 -0.01443836617)
(15.17128254 -0.07307258044 -0.01953589337)
(15.18056559 -0.07672791882 -0.02456982772)
(15.1906648 -0.08061170731 -0.02949586694)
(15.20282926 -0.08403134887 -0.03304416619)
(15.21671314 -0.08627172322 -0.03451986065)
(15.23171154 -0.08676827809 -0.03471792741)
(15.24419821 -0.08563397701 -0.03449105468)
(15.25698227 -0.08221589829 -0.03312787438)
(15.26421208 -0.0779272465 -0.0308214419)
(15.27466779 -0.07382570404 -0.02849255482)
(15.27230447 -0.0653509247 -0.0220319832)
(15.28991597 -0.0562641111 -0.01796739368)
(15.24205474 -0.04909661121 -0.01102301328)
(15.29756373 -0.04041185188 -0.02794904188)
(15.01627211 0.001066492177 0.005990757116)
(15.02257557 0.002090614267 0.006005830237)
(15.02690879 0.003634295449 0.009950407802)
(15.03587681 0.004716558282 0.007188771703)
(15.04202455 0.005922694791 0.004829265963)
(15.04572304 0.006765209306 0.003425518206)
(15.04971434 0.007014739867 0.002718265228)
(15.05402617 0.0065618172 0.003667196726)
(15.05836965 0.005742472372 0.004640225906)
(15.06280609 0.004607666206 0.004740335583)
(15.06732908 0.002954602267 0.004350645396)
(15.07149629 0.0008427582577 0.003805480101)
(15.0748464 -0.00161640953 0.003095622699)
(15.07704903 -0.004950962134 0.002161461909)
(15.07782331 -0.009352746117 0.001274397937)
(15.07775184 -0.01466783853 0.0008293549479)
(15.07791764 -0.02058644641 0.001084520399)
(15.07896782 -0.02680515734 0.001828750352)
(15.08099374 -0.03311177035 0.002422149819)
(15.08412085 -0.0393327197 0.002708984573)
(15.0885825 -0.04533320464 0.002793105346)
(15.09444874 -0.05097799194 0.002797053851)
(15.10158195 -0.0561110792 0.00284796846)
(15.10949534 -0.06051721105 0.003048453487)
(15.11808444 -0.06413803016 0.003479502702)
(15.12593564 -0.06657612486 0.004098845088)
(15.13367423 -0.0680553997 0.004977016291)
(15.13909998 -0.06851986964 0.00575152901)
(15.14367378 -0.0681589322 0.006677567108)
(15.14516875 -0.06770478796 0.006912824592)
(15.14622336 -0.06726214042 0.006378409425)
(15.1464097 -0.06726654837 0.004363024525)
(15.14711967 -0.06759268444 -3.842629525e-05)
(15.14936898 -0.06847644622 -0.006756736501)
(15.15385065 -0.07028154283 -0.01453365036)
(15.16089271 -0.07301474876 -0.02208759594)
(15.16949758 -0.07630748837 -0.02929719275)
(15.178433 -0.07998796686 -0.03664661937)
(15.18837074 -0.08387894252 -0.04371875887)
(15.20106998 -0.08742709751 -0.04904663459)
(15.21563166 -0.09014896018 -0.0512696544)
(15.23260341 -0.0912281428 -0.05160826255)
(15.24680102 -0.09043913483 -0.05141068942)
(15.26043569 -0.08759835354 -0.05004851085)
(15.26977793 -0.08327878612 -0.04708393978)
(15.28280131 -0.07816615872 -0.04349666162)
(15.28189061 -0.07040827888 -0.03654070701)
(15.30144275 -0.05895708971 -0.02925787983)
(15.25469046 -0.05124815447 -0.01883025064)
(15.3105398 -0.04132472434 -0.03417412036)
(15.01626416 0.0006355515486 0.006047342699)
(15.02212442 0.001204166531 0.006002222546)
(15.02580516 0.001851704178 0.01001801558)
(15.03436535 0.002124274024 0.007181858512)
(15.03958552 0.00216209296 0.004515850845)
(15.04324222 0.002019861273 0.002285753621)
(15.04574188 0.001653407598 0.001155780394)
(15.04943688 0.0004739816825 0.00225321272)
(15.05374797 -0.001305170226 0.00361778442)
(15.0585581 -0.003395241247 0.003932161443)
(15.06369331 -0.005908876202 0.003587412587)
(15.06829981 -0.00860123468 0.003093526923)
(15.071884 -0.01134666838 0.00249695557)
(15.07428774 -0.014578552 0.001703570422)
(15.07524361 -0.01863317867 0.0008902786161)
(15.07518828 -0.02350995293 0.0004671596462)
(15.07517366 -0.02910176401 0.0007390161988)
(15.07585193 -0.03523675772 0.001516183944)
(15.07737964 -0.04172182105 0.002178528268)
(15.08001167 -0.04838488328 0.002553818801)
(15.08413309 -0.05507918969 0.002684900742)
(15.08994337 -0.06162464697 0.002686398023)
(15.09736499 -0.06776532716 0.002725537634)
(15.10596429 -0.07316003012 0.002908244337)
(15.11545287 -0.07751750515 0.003341270553)
(15.12463022 -0.08039640664 0.003997205187)
(15.13339387 -0.08174630921 0.004859027506)
(15.14004671 -0.08154440344 0.005734293427)
(15.14496593 -0.08018217747 0.006483482945)
(15.14696691 -0.07835553556 0.006633358039)
(15.14817307 -0.07608341291 0.005745442649)
(15.14814963 -0.0743125135 0.003151095034)
(15.14800351 -0.07241116908 -0.002763590546)
(15.14921164 -0.07056694159 -0.01156117488)
(15.15218322 -0.06844205558 -0.02163685688)
(15.15741994 -0.06588578464 -0.03169639756)
(15.1645461 -0.06341704072 -0.04144603061)
(15.17258992 -0.06240227795 -0.05065801288)
(15.18257628 -0.06338232355 -0.05930401596)
(15.19620239 -0.06546530329 -0.06578125627)
(15.21195709 -0.0676181982 -0.06824651639)
(15.23093955 -0.06876093045 -0.06843498914)
(15.24786019 -0.06817845902 -0.06801935714)
(15.26358628 -0.06578350679 -0.06656677228)
(15.27626114 -0.06159078437 -0.062929709)
(15.29028588 -0.05629088834 -0.05850482047)
(15.29089571 -0.04870254144 -0.0507543813)
(15.31104239 -0.03817794539 -0.04243202489)
(15.26591218 -0.03132685746 -0.02962114903)
(15.32413424 -0.02261679006 -0.04373295278)
(15.01631408 0.0004412725999 0.006029372366)
(15.02217286 0.0008691879154 0.005946512733)
(15.02624061 0.001459840387 0.009858735752)
(15.03445451 0.001804544452 0.007062970762)
(15.04044529 0.00205352324 0.00409058485)
(15.04353176 0.002171377266 0.001796901361)
(15.04671979 0.002072273218 0.0002407275312)
(15.04893006 0.001712513192 0.001205930615)
(15.0526557 0.0007871704941 0.002871212014)
(15.0567173 -0.0008219056133 0.003559016766)
(15.0609442 -0.003227539574 0.003450624086)
(15.06450418 -0.005908615151 0.003090560482)
(15.06720312 -0.008998347021 0.002520175968)
(15.06870418 -0.0129627342 0.001709976928)
(15.06880609 -0.01796553126 0.0009040930762)
(15.06811364 -0.02400633873 0.0005122390256)
(15.06768198 -0.03096492069 0.0008214598144)
(15.06812325 -0.03863480611 0.001570581493)
(15.06957128 -0.04675759734 0.002155105358)
(15.07227041 -0.05510781498 0.002452636734)
(15.07662962 -0.06351298032 0.002509973434)
(15.08291307 -0.07175393885 0.002426230052)
(15.09109998 -0.07950010455 0.002368488422)
(15.10087187 -0.08634220357 0.002467213964)
(15.11177623 -0.0917638395 0.002818665896)
(15.1228736 -0.09522472016 0.003432209666)
(15.13336796 -0.09635574434 0.004265012487)
(15.14180634 -0.09530155495 0.005140153694)
(15.14814502 -0.09248126319 0.00588137346)
(15.15048194 -0.0884625385 0.006074513428)
(15.15162511 -0.08389563105 0.005095359966)
(15.15137924 -0.07945537387 0.001671195111)
(15.15142543 -0.07512346744 -0.005731250987)
(15.15382559 -0.07153074031 -0.0161335635)
(15.15899834 -0.06822281787 -0.02782607286)
(15.16629367 -0.0648549708 -0.04026053416)
(15.17334831 -0.06164105802 -0.0526433489)
(15.17862988 -0.06009440236 -0.06387487932)
(15.18526835 -0.06041281003 -0.07382579692)
(15.19702617 -0.06189492165 -0.08082144116)
(15.21239225 -0.06377641987 -0.08297745653)
(15.23170113 -0.06499489617 -0.08234208196)
(15.24903385 -0.06461408958 -0.08087551348)
(15.2654961 -0.06231953595 -0.07849841581)
(15.27990184 -0.05806944165 -0.07383158907)
(15.29554691 -0.05237078933 -0.0676390819)
(15.29882726 -0.04554654428 -0.05883132866)
(15.32181779 -0.03457290221 -0.04814322093)
(15.27680274 -0.02754508325 -0.03224762638)
(15.33458251 -0.01803622607 -0.0447371463)
(15.01632057 0.0001968030031 0.006048284674)
(15.02190476 0.0003831027565 0.00595214713)
(15.02577112 0.0005195926679 0.009907166026)
(15.03341486 0.000446811154 0.00712315575)
(15.03911183 5.443770781e-05 0.003992754278)
(15.04163814 -0.0004219733612 0.001649468687)
(15.04473425 -0.001407296535 -0.0002246302279)
(15.04653439 -0.002324018888 0.000627659985)
(15.04956658 -0.003678010378 0.00222729836)
(15.05369386 -0.005803891753 0.003114532591)
(15.05787222 -0.008597397069 0.003202275897)
(15.06122782 -0.01144519578 0.002892150713)
(15.06364987 -0.01462875598 0.002318414736)
(15.06480634 -0.01861288294 0.00150433175)
(15.06449277 -0.02360550504 0.0007018216895)
(15.06327101 -0.02969486598 0.0003228904029)
(15.06215104 -0.03683623027 0.0006476290172)
(15.06178325 -0.0448814107 0.001390909904)
(15.06241876 -0.05363771831 0.001948296817)
(15.06443769 -0.0629299567 0.002190928036)
(15.06841576 -0.07260536892 0.00214556166)
(15.07472927 -0.08242199905 0.001920236929)
(15.08366868 -0.09188913616 0.001684506844)
(15.09478914 -0.1003690848 0.001602206305)
(15.10724899 -0.1070722589 0.001781923495)
(15.12109531 -0.1112552117 0.002307201135)
(15.13349198 -0.112080577 0.003077189681)
(15.14519209 -0.1098168864 0.004037569644)
(15.15295541 -0.1049944918 0.004918519428)
(15.15629821 -0.09866964149 0.005302995966)
(15.15775685 -0.09183691364 0.004275937296)
(15.15724255 -0.08502970457 0.0003714765232)
(15.15612199 -0.07782073235 -0.008687843399)
(15.15633442 -0.0693725533 -0.02193078748)
(15.15912782 -0.05890985152 -0.03796548872)
(15.16414875 -0.04694386059 -0.05548393388)
(15.16953455 -0.03442762559 -0.07190463269)
(15.1746642 -0.02616759202 -0.08675706455)
(15.18114443 -0.02364058679 -0.09737373799)
(15.1931981 -0.0242384268 -0.1048154183)
(15.20958874 -0.02649141754 -0.1069163631)
(15.23000922 -0.02887650539 -0.105980799)
(15.25073715 -0.02981435582 -0.1045573052)
(15.26917486 -0.02920124241 -0.1016684459)
(15.28623808 -0.02673808473 -0.09676595602)
(15.30323706 -0.02302447746 -0.09050019566)
(15.30780353 -0.01798026721 -0.08136440866)
(15.33149988 -0.009754354746 -0.0699500736)
(15.28928339 -0.004735568728 -0.05041178503)
(15.35104974 0.002572704443 -0.06092109279)
(15.01632657 8.970048066e-05 0.006034966152)
(15.02193907 0.0002006032213 0.005933919753)
(15.02577573 0.0003037040981 0.009870793827)
(15.03349283 0.0002885864095 0.007041861094)
(15.03901932 7.804536398e-05 0.00388705037)
(15.04146535 -0.0002222245578 0.001442515435)
(15.0442563 -0.0009446676774 -0.0005642855513)
(15.04574042 -0.001667818431 0.0001776172621)
(15.04819588 -0.002976750487 0.001787735311)
(15.05153138 -0.004777426434 0.002729509047)
(15.0549005 -0.007322162673 0.003022717531)
(15.05755496 -0.0101522349 0.002822489352)
(15.05923939 -0.01361329063 0.002263883278)
(15.05955881 -0.01801552419 0.001453261875)
(15.05841021 -0.02359826098 0.0006541485304)
(15.05634071 -0.03046363747 0.0002773982647)
(15.0543243 -0.03856775549 0.0005914882247)
(15.05303131 -0.04776337385 0.001271666342)
(15.05281406 -0.05787178743 0.001712824361)
(15.05410144 -0.0687767722 0.001788195211)
(15.05782597 -0.08035427684 0.001521673633)
(15.06426018 -0.0923505273 0.00102635901)
(15.07387381 -0.1041458664 0.0004958599657)
(15.08666856 -0.1148068164 0.0001056892318)
(15.1015941 -0.1232818869 1.320763083e-05)
(15.11804711 -0.1283791022 0.0002824679347)
(15.13499451 -0.1289129784 0.001032941209)
(15.14914815 -0.1247860755 0.002147620104)
(15.15956357 -0.1165079646 0.003349272581)
(15.16391551 -0.1061819366 0.004076132908)
(15.16547384 -0.09520126525 0.003131173653)
(15.16560616 -0.08609912783 -0.0006171443432)
(15.16731428 -0.07895204741 -0.008989071833)
(15.17288733 -0.0728434143 -0.02076078097)
(15.18176032 -0.06593680123 -0.03457918337)
(15.19056848 -0.05588458243 -0.0499958012)
(15.19326133 -0.04266119471 -0.06710370525)
(15.18933196 -0.02949121548 -0.08588001107)
(15.18830481 -0.01902388721 -0.1036677008)
(15.19484465 -0.0156354606 -0.1121020922)
(15.20855769 -0.01538481506 -0.1148496557)
(15.22760338 -0.01657940456 -0.1143773706)
(15.24729557 -0.01721812934 -0.112845771)
(15.26664708 -0.01639444933 -0.1088889686)
(15.28522954 -0.0132533248 -0.1025335153)
(15.30547578 -0.007986573056 -0.09429868812)
(15.3125993 -0.001374041044 -0.08269182061)
(15.3380406 0.008417678023 -0.06945941746)
(15.29493811 0.01431659271 -0.04689130724)
(15.35547196 0.02247636296 -0.05551093407)
(15.0163196 -5.73012203e-05 0.006042209738)
(15.02180185 -7.864166778e-05 0.005935688613)
(15.02552131 -0.0002632494378 0.009896979814)
(15.0329591 -0.0005021311651 0.007074725732)
(15.03832313 -0.001046517498 0.003867741719)
(15.04042868 -0.001586439616 0.001443613288)
(15.04300296 -0.002665823895 -0.0006470656415)
(15.04416078 -0.003582586146 4.904838788e-05)
(15.04635518 -0.005206808568 0.001630758795)
(15.04926843 -0.007076213327 0.002573554923)
(15.05214751 -0.009584195171 0.002903260032)
(15.05432324 -0.01240047549 0.002719811053)
(15.0554368 -0.01583820697 0.002160523161)
(15.05506376 -0.02020587247 0.001351120838)
(15.05307754 -0.02578453546 0.0005534879607)
(15.04997387 -0.03272432855 0.0001612511407)
(15.04671578 -0.04105216986 0.0004259875705)
(15.04403936 -0.05070771918 0.00100739831)
(15.04245125 -0.06162973848 0.001297036691)
(15.04256053 -0.07384303358 0.001127466188)
(15.04542012 -0.08725427505 0.0005458641767)
(15.05154203 -0.1015212288 -0.0003606251697)
(15.06129797 -0.1159622983 -0.001394867463)
(15.07589834 -0.1293492398 -0.002359172934)
(15.09414851 -0.140135121 -0.002994132379)
(15.11512143 -0.1466822469 -0.00310216221)
(15.13708878 -0.1476346797 -0.002486518182)
(15.15702657 -0.1421675753 -0.0009829577854)
(15.1712044 -0.1317559914 0.001008375164)
(15.17714901 -0.1189894189 0.002486003069)
(15.17769061 -0.1057734128 0.00223300231)
(15.17397564 -0.09227833247 -0.001113575264)
(15.16975482 -0.07816437563 -0.009353662081)
(15.16986859 -0.06221025278 -0.02192668611)
(15.17642267 -0.04141228228 -0.03791233462)
(15.18734251 -0.01463432286 -0.0540290401)
(15.19620137 0.01524839655 -0.07633521211)
(15.19649385 0.02934377874 -0.09415934999)
(15.1949153 0.03684363174 -0.1154448295)
(15.19828709 0.03734726927 -0.126015615)
(15.21003133 0.03463950184 -0.1314449224)
(15.22869002 0.02995108895 -0.1336935728)
(15.24950647 0.0253105773 -0.1342025567)
(15.27255195 0.021479868 -0.1318157325)
(15.29190849 0.0194930343 -0.1272032395)
(15.31478253 0.01910147185 -0.1210662112)
(15.3232409 0.0201813956 -0.1101645005)
(15.34951939 0.02209163747 -0.0971909599)
(15.31048228 0.02721730397 -0.07223874909)
(15.37436701 0.03296965646 -0.07916382125)
(15.01632964 -8.248204308e-05 0.00603653676)
(15.02177451 -0.0001169099512 0.005926024514)
(15.0254655 -0.0002833092164 0.009888835358)
(15.03276656 -0.0004789771561 0.00705962423)
(15.03805502 -0.0009389133596 0.003799752332)
(15.03987331 -0.00137756563 0.001396835494)
(15.04228055 -0.002359690496 -0.0007691931802)
(15.04304756 -0.003160827265 -6.761883639e-05)
(15.04488966 -0.004709157273 0.001513681858)
(15.04726191 -0.006418595885 0.002441754476)
(15.04948891 -0.008724184094 0.002809127042)
(15.05102166 -0.01147457268 0.002652052123)
(15.05138209 -0.01490445615 0.002090927441)
(15.05015283 -0.01932658796 0.001275203228)
(15.0471792 -0.02502986894 0.0004693871496)
(15.04288106 -0.03217794101 4.266148781e-05)
(15.03820428 -0.04083261816 0.0002237632775)
(15.03384776 -0.05102380286 0.0006578532973)
(15.0307368 -0.06287161359 0.0007167533125)
(15.02927513 -0.07645411163 0.0002038009239)
(15.03053846 -0.09173322199 -0.0008502507279)
(15.0358962 -0.1084276509 -0.002404764428)
(15.04603148 -0.1259080998 -0.004295783426)
(15.06212698 -0.1427205646 -0.006273590524)
(15.08462249 -0.1564366297 -0.008009092472)
(15.11109749 -0.1642608692 -0.008858778068)
(15.13878593 -0.1635249156 -0.008301803749)
(15.1639895 -0.153365583 -0.006187896266)
(15.18217194 -0.1346924317 -0.002956317653)
(15.18961823 -0.1158451358 -0.0004709346955)
(15.19189672 -0.09693302438 -0.0002413091396)
(15.1926713 -0.08629781126 -0.002993208653)
(15.19953608 -0.07916516195 -0.008809625896)
(15.21194892 -0.07324049285 -0.01729954634)
(15.2315236 -0.0657860007 -0.02580846633)
(15.24364096 -0.04257985783 -0.02804575501)
(15.23257151 -0.007026601372 -0.04149498176)
(15.20867249 0.02750703046 -0.06365930006)
(15.19219113 0.05236140986 -0.09179949805)
(15.19166232 0.05969293879 -0.1059822312)
(15.19994996 0.05995583604 -0.1118448104)
(15.21557902 0.0568273543 -0.1139892229)
(15.2355602 0.0532731659 -0.1134649702)
(15.25875318 0.05153152516 -0.1099556893)
(15.27996053 0.05263512877 -0.1033928136)
(15.30535027 0.05653758515 -0.09370601667)
(15.3150736 0.06249815606 -0.07996429472)
(15.34345137 0.06948085043 -0.06378660769)
(15.30717781 0.07470373024 -0.04064267268)
(15.36858077 0.08102976052 -0.04991681762)
(15.01632362 -0.0001501890775 0.006038861156)
(15.02170433 -0.0002413264441 0.005924898876)
(15.02532012 -0.0005047054123 0.009902812171)
(15.03247183 -0.0007605047215 0.007072703471)
(15.03765848 -0.00128826698 0.00377683887)
(15.03918651 -0.00173831162 0.001412462512)
(15.04146281 -0.002766234776 -0.0008259859704)
(15.04190026 -0.003529598021 -0.0001144038377)
(15.04345419 -0.005049472589 0.001483359966)
(15.04537891 -0.006620235076 0.002393054894)
(15.04707461 -0.008721629504 0.002773536379)
(15.04801393 -0.01125947524 0.00261661266)
(15.04766599 -0.0144344057 0.002034498363)
(15.04559366 -0.01857388685 0.00120017752)
(15.04158243 -0.02397699998 0.0003786225653)
(15.03598226 -0.03084003877 -0.0001010949967)
(15.02963678 -0.03927197857 -4.076812833e-05)
(15.02342904 -0.04946686307 0.000186406016)
(15.01833422 -0.06170355559 -4.288456644e-05)
(15.01444524 -0.07610838783 -0.0009983015807)
(15.01363835 -0.09280975836 -0.002773712072)
(15.0172342 -0.1117856843 -0.005371954963)
(15.02769307 -0.1324978719 -0.008691095165)
(15.04531297 -0.1535317858 -0.01240788011)
(15.07240803 -0.1721814962 -0.01601254716)
(15.10846047 -0.1847762079 -0.0183554941)
(15.14831547 -0.1878461634 -0.01787979654)
(15.18509436 -0.1783682067 -0.0136461515)
(15.20880945 -0.1572354431 -0.006855517598)
(15.213689 -0.1351442429 -0.002212051144)
(15.20569269 -0.1122112974 -0.0006120063176)
(15.19223504 -0.09097255697 -0.002841114186)
(15.18316239 -0.07008019422 -0.01129405421)
(15.18582422 -0.0552580418 -0.0222548292)
(15.21256028 -0.04246901134 -0.03236078345)
(15.2400749 0.01759108474 -0.03906206723)
(15.26137527 0.06384307052 -0.04221897537)
(15.24318513 0.07358630435 -0.05593289336)
(15.21600909 0.0834065559 -0.07985191333)
(15.20035548 0.08769763018 -0.1085126023)
(15.20263648 0.08356653781 -0.1216330828)
(15.21697472 0.07454551713 -0.1307996295)
(15.23892073 0.06569663768 -0.136101521)
(15.26686769 0.05768927429 -0.1377911235)
(15.29092759 0.05144654252 -0.1365360849)
(15.31839954 0.04627769301 -0.1325119196)
(15.32870116 0.04261041579 -0.1238045435)
(15.35624006 0.03884857072 -0.112081728)
(15.31938087 0.04279445519 -0.08390094838)
(15.38300975 0.04524675245 -0.09101404137)
(15.01632647 -0.0001420526623 0.006036670906)
(15.02167393 -0.0002224507406 0.00592049333)
(15.02523671 -0.0004445049484 0.009905962147)
(15.0322931 -0.0006611244978 0.007067668841)
(15.03739635 -0.001100948318 0.00373737883)
(15.03866298 -0.001458703926 0.001417162324)
(15.04085774 -0.002365418061 -0.0009043022737)
(15.04095163 -0.002981062183 -0.0001661330986)
(15.04223216 -0.004331454212 0.001470727451)
(15.04371642 -0.005657891698 0.002360573969)
(15.0449022 -0.007461969119 0.002750925851)
(15.04525531 -0.009684058365 0.002588439026)
(15.0442115 -0.01250704191 0.001980514615)
(15.04129919 -0.01623402571 0.001124555807)