/*--------------------------------*- C++ -*----------------------------------*\
| =========                 |                                                 |
| \\      /  F ield         | OpenFOAM: The Open Source CFD Toolbox           |
|  \\    /   O peration     | Version:  2.2.1                                 |
|   \\  /    A nd           | Web:      www.OpenFOAM.org                      |
|    \\/     M anipulation  |                                                 |
\*---------------------------------------------------------------------------*/
FoamFile
{
    version     2.0;
    format      ascii;
    class       volScalarField;
    location    "1";
    object      epsilon;
}
// * * * * * * * * * * * * * * * * * * * * * * * * * * * * * * * * * * * * * //

dimensions      [0 2 -3 0 0 0 0];

internalField   nonuniform List<scalar> 
86889
(
0.1173528981
0.04968556646
0.02708716339
0.01908337381
0.01735797044
0.01885001278
0.0216510901
0.0242461663
0.0257765723
0.02614362707
0.02559782241
0.02462570338
0.02365373997
0.02290064206
0.02240887062
0.0221277781
0.02198463092
0.02192153484
0.02190095597
0.02190204808
0.02191427762
0.02193301644
0.02195652248
0.0219838599
0.02201591057
0.02205084087
0.02208698945
0.02212378531
0.02215883602
0.02219468092
0.02248050664
0.02342129575
0.02522496718
0.02705193152
0.02650892152
0.02549528772
0.02461356976
0.02386484739
0.0232833641
0.02284585401
0.02252572822
0.02239741853
0.02232260271
0.0222653534
0.02221848245
0.02217935311
0.02216052639
0.02214278523
0.02431926687
0.1162953397
0.1106596193
0.05038118832
0.02689569123
0.01794593773
0.01559521612
0.01663553469
0.01906020761
0.02128596614
0.02234424685
0.02205012024
0.02080810881
0.01923801837
0.01782524605
0.01677680599
0.01610150694
0.01571366331
0.01551214689
0.01541729951
0.01537793686
0.01536540439
0.01536534406
0.01537211628
0.01538352481
0.01539851601
0.015416386
0.01543784714
0.01545995829
0.0154837509
0.01550328789
0.01552057494
0.01553400652
0.01555292708
0.01558900798
0.01558206909
0.01557664335
0.0155641531
0.01537757014
0.01517167773
0.01499738531
0.01486110045
0.01475251536
0.01473011354
0.01473622934
0.01475260083
0.01477759597
0.01480639818
0.01484387113
0.01483793888
0.01576895506
0.06616458269
0.1096078614
0.0517191094
0.02643011858
0.01717406295
0.01467293773
0.01568752165
0.01824516432
0.0205954213
0.02169115186
0.02135780645
0.02005312734
0.01841787035
0.01694670325
0.01586213217
0.01517165709
0.01478080591
0.01458184377
0.01449211046
0.01445948516
0.01445499126
0.01446416345
0.01448016277
0.01450011787
0.0145225823
0.01454686179
0.014572285
0.01459732946
0.01461984836
0.0146377659
0.0146469206
0.01464439564
0.014621699
0.01458744422
0.01455901443
0.01454166222
0.01452061297
0.01433660042
0.01414506269
0.01398653852
0.01386371384
0.01376675605
0.01371786083
0.01370854594
0.01371909273
0.01375032351
0.01378959854
0.01385050112
0.01394991548
0.01466634231
0.06292378403
0.1094113516
0.05136327845
0.02548453853
0.01647449832
0.01415738698
0.0152297205
0.01769803496
0.01997153656
0.02096471811
0.0205005011
0.01905334096
0.01729399118
0.01572862142
0.01457621223
0.01384122185
0.01342311179
0.01320845345
0.01310980831
0.01307161415
0.01306297547
0.0130683801
0.01308053763
0.01309644386
0.01311432771
0.01313370061
0.01315372453
0.01317339222
0.01319096236
0.01320382949
0.0132088144
0.01320084611
0.01317632375
0.01314238555
0.01312481379
0.01311124582
0.01308580015
0.01301280521
0.01293609109
0.01287389059
0.01282785095
0.01279410918
0.01276782897
0.01277742435
0.01282301762
0.01289251464
0.0129608527
0.01306439567
0.01326424768
0.01422645689
0.06240814573
0.1094066492
0.05127329397
0.02539040917
0.01633065413
0.01401156569
0.01510211096
0.01751403115
0.0197306632
0.02066029997
0.02013332525
0.01862850426
0.0168240694
0.01522175465
0.01403986696
0.01328421926
0.01285313995
0.01263007326
0.0125255555
0.01248269149
0.01246983882
0.01247108793
0.01247897232
0.0124905034
0.01250419116
0.01251975667
0.01253621361
0.01255261252
0.01256704832
0.01257699785
0.01257869165
0.01256783551
0.01254499256
0.01253112903
0.01252568821
0.0125218172
0.01251298064
0.01249181671
0.0124695151
0.01245339351
0.01244403678
0.0124395159
0.01243749414
0.01244434374
0.01249369455
0.01258172212
0.01267992773
0.0128316175
0.01308071727
0.01410809078
0.06229488332
0.1094060943
0.05125100845
0.0253690495
0.01630238537
0.01394936365
0.01504362953
0.01744387091
0.01962541687
0.02051351933
0.01994659579
0.01840814945
0.01657900318
0.0149572662
0.013760841
0.01299383583
0.0125555699
0.01232785287
0.01221984569
0.01217391367
0.0121580632
0.0121562364
0.0121610555
0.01216934838
0.01217989436
0.01219247825
0.0122062979
0.01221971774
0.01223295687
0.01223544647
0.01223441423
0.01222644533
0.01222383241
0.01223033246
0.01223733386
0.0122434804
0.01224649246
0.01224586308
0.0122453619
0.01224806682
0.01225354228
0.01225088939
0.01224117858
0.01224768602
0.01227844949
0.01238126989
0.0125217635
0.01271863849
0.01301040234
0.0140831043
0.06226708761
0.1094054659
0.05124611475
0.02536426489
0.01629484624
0.01394007356
0.01502719131
0.01741891077
0.01958270307
0.02044788957
0.01986080661
0.01830651517
0.01646573652
0.0148352316
0.01363252106
0.01286040285
0.01241863395
0.01218847742
0.01207847466
0.01203068414
0.01201285167
0.01200881641
0.01201119826
0.01201706894
0.01202528207
0.01203505577
0.012046629
0.01205936217
0.01207169853
0.01208191191
0.01208831184
0.01209401276
0.01211558445
0.01213888196
0.0121570385
0.0121714234
0.01218166582
0.01218929988
0.01219731455
0.01220731248
0.01221876904
0.01221178288
0.01219038381
0.01219125703
0.01222120831
0.01232820555
0.012477968
0.01267626636
0.01296878198
0.01404457788
0.0622090707
0.1094048113
0.05124479501
0.02536309054
0.01629311161
0.0139380871
0.01502509884
0.01741059871
0.01956210777
0.02041221947
0.01981089115
0.01824571359
0.01639719422
0.01476133447
0.01355504714
0.01278020708
0.0123362975
0.01210466295
0.01199333207
0.01194397084
0.0119243125
0.01191821452
0.01191833755
0.01192159782
0.01192712618
0.01193484078
0.01194472715
0.01195672124
0.01197319397
0.01199615848
0.01201951525
0.01204755208
0.01208503998
0.01211696246
0.01214130424
0.01215960823
0.01217359853
0.01218602834
0.01219791861
0.0122103067
0.01222324567
0.01221744096
0.01219712539
0.01219293405
0.01222267827
0.01233504885
0.01249552338
0.01270983971
0.01302284914
0.01412378998
0.06223987789
0.1094041376
0.05124410459
0.02536254703
0.01629266431
0.0139379062
0.0150252012
0.01741069296
0.01955485739
0.02039147249
0.01978055357
0.01820783445
0.01635360366
0.01471391727
0.01350511441
0.01272836567
0.01228267104
0.01204949969
0.01193653504
0.01188537639
0.01186382836
0.01185621149
0.01185556318
0.01185952594
0.01186796277
0.01187930494
0.01189162011
0.01190444357
0.01192583031
0.01195838112
0.01199508207
0.01203546574
0.01207892036
0.01211315802
0.01213763523
0.0121564987
0.01217084868
0.01218491061
0.01219954039
0.0122151442
0.01223104577
0.01222753199
0.01220809084
0.01220878484
0.0122301196
0.01232064123
0.01246740121
0.01266566978
0.01296271279
0.01404660943
0.06212503821
0.1094034702
0.05124354815
0.02536217715
0.01629249759
0.01393803567
0.01502563454
0.01741121099
0.01955422868
0.02038144643
0.01976580705
0.01818943447
0.01633238541
0.01469081689
0.01348076097
0.01270290532
0.01225568452
0.01202100897
0.0119066057
0.01185511019
0.01183405856
0.01182813176
0.01183087115
0.01183980024
0.01185526229
0.01187507355
0.01189428993
0.0119129083
0.01193540207
0.01196662148
0.01200326205
0.01204348054
0.01208733307
0.012122092
0.01214763955
0.01216904889
0.0121857378
0.01220141272
0.01221568735
0.01223008606
0.01224474286
0.01224172986
0.01223625333
0.01224535659
0.01226914388
0.01236933018
0.01253210309
0.0127630637
0.01309934907
0.01422262446
0.06221706746
0.1094028184
0.05124304494
0.02536185132
0.01629237938
0.01393820636
0.01502609529
0.01741176126
0.01955396424
0.02038037192
0.01976386005
0.01818710114
0.01632969425
0.01468791906
0.01347774569
0.01269957394
0.0122512718
0.01201572917
0.01190148764
0.01185039926
0.01183089475
0.01182911446
0.01183896902
0.01185491105
0.01187581007
0.0119023645
0.01193148924
0.01195799589
0.01198353478
0.01201278315
0.01204390984
0.01207729752
0.01211420043
0.01214928621
0.01218211276
0.01220894745
0.01222477012
0.01222933183
0.0122371672
0.01225158114
0.01226666738
0.01227617041
0.01228900339
0.01230336054
0.01232827337
0.01240576231
0.01253754898
0.01272469214
0.01301072536
0.01408363731
0.06201664616
0.109402208
0.05124259402
0.02536157034
0.01629228778
0.01393837395
0.0150265236
0.01741227231
0.01955381652
0.02037949796
0.01976206179
0.01818483744
0.01632711618
0.01468514259
0.01347485462
0.01269648781
0.01224788534
0.01201196243
0.01189712236
0.01184704728
0.01183167654
0.01183570214
0.01185186457
0.01187494023
0.01190184601
0.0119355937
0.01197676049
0.0120146985
0.01205080196
0.01208521729
0.01211681288
0.01214850813
0.01217944638
0.01222353255
0.01229130371
0.01236940756
0.01241778852
0.01246261274
0.01247861029
0.01249564891
0.01250470226
0.01250011175
0.01248065071
0.01245939653
0.0124580592
0.01252827191
0.01265969868
0.01287854928
0.01320497489
0.01432959667
0.06216332099
0.1094016537
0.05124219108
0.02536132382
0.01629221229
0.01393852785
0.01502690709
0.01741272912
0.01955369151
0.02037877856
0.01976045778
0.018182711
0.01632471803
0.01468254806
0.01347214315
0.01269364081
0.01224478226
0.01200835445
0.0118942416
0.01184757877
0.01183733727
0.0118462199
0.01186647709
0.01189703931
0.01193471958
0.01197507672
0.01202181438
0.0120768412
0.01212750146
0.01217682674
0.01222183971
0.01225949668
0.01229971728
0.01236583724
0.01248687987
0.0126947086
0.01267224844
0.01263005419
0.01257172625
0.01251254387
0.01250044021
0.0125027333
0.0125149544
0.01253854392
0.01258063282
0.01268096346
0.01279085129
0.01294416957
0.01319218918
0.01423521145
0.06195779554
0.1094011748
0.05124185911
0.02536112884
0.01629216158
0.01393866904
0.0150272411
0.01741312383
0.01955358406
0.02037820687
0.01975906496
0.01818073924
0.01632256155
0.01468022069
0.01346969394
0.01269104037
0.01224187223
0.01200489945
0.01189281332
0.01185136507
0.01184679226
0.01186028985
0.01188612557
0.01192284628
0.01196648949
0.01201300647
0.01206402054
0.01213129278
0.01219849651
0.01226509678
0.01232577585
0.01237596261
0.01244419844
0.01259395414
0.01286676528
0.01326896786
0.01379312027
0.01415388379
0.01457298308
0.01456368632
0.01430634176
0.01401940766
0.01373455049
0.01345139882
0.01321588275
0.01310610459
0.01310427051
0.01319896971
0.01342356514
0.0144621386
0.0620360815
0.1094007848
0.05124159048
0.02536097339
0.01629212374
0.01393878567
0.0150275131
0.01741344473
0.01955350494
0.02037777761
0.01975792247
0.01817902101
0.01632073914
0.0146782631
0.01346762334
0.01268881598
0.01223933026
0.01200181657
0.01189109302
0.01185303323
0.01185368201
0.0118753122
0.01190920641
0.01194900299
0.01199342699
0.01205006099
0.01212674276
0.01222526923
0.0123006882
0.01239897744
0.01243278906
0.01251273826
0.01256927721
0.01276129445
0.01312467843
0.0137186898
0.01452217943
0.01885823699
0.03335513239
0.03337935264
0.03151064648
0.02936193471
0.02680040432
0.02389754887
0.0208923646
0.01821817787
0.01621905094
0.01492992645
0.01432015911
0.01494262071
0.06207830786
0.109400496
0.05124140372
0.02536086988
0.01629210484
0.01393887829
0.01502771776
0.01741368368
0.0195534945
0.02037752559
0.01975705909
0.01817764237
0.01631933865
0.01467677459
0.01346604624
0.01268710267
0.01223734024
0.01199935247
0.01188857591
0.01185076835
0.01185431207
0.01188451435
0.01192571186
0.01196513507
0.01201362663
0.01209075261
0.0122237397
0.01245172149
0.01246260838
0.01267646583
0.01256133783
0.01259033975
0.01265795751
0.01280399925
0.01307885349
0.01348689433
0.01419373605
0.01473498207
0.01552237794
0.01602926138
0.01627782265
0.01613974825
0.01575569886
0.01533242129
0.01489498417
0.01449815524
0.0141747131
0.01395180447
0.01394407937
0.0147747769
0.06200320711
0.1094003179
0.05124128828
0.02536080644
0.01629209332
0.01393893296
0.01502783869
0.01741382462
0.0195534972
0.02037739614
0.01975653812
0.01817677792
0.01631847321
0.0146758547
0.01346506657
0.01268602421
0.01223607266
0.01199775855
0.01188654717
0.01184801339
0.01185197319
0.01188452577
0.0119286211
0.0119554736
0.01202459359
0.0121921274
0.01248309244
0.01289460573
0.01319444352
0.01369938442
0.01460958979
0.01481804775
0.0156205935
0.01648337471
0.01610469678
0.01557824018
0.01511834743
0.0145966091
0.01427023971
0.01475174088
0.01525401932
0.01538310846
0.01523734503
0.01495876197
0.01462865589
0.01440089695
0.01417054097
0.01398237523
0.01395411061
0.01466638532
0.06182263946
0.109400256
0.05124125616
0.0253607902
0.01629209286
0.01393895436
0.01502788176
0.01741387348
0.01955349614
0.02037735111
0.01975636474
0.01817649207
0.01631819021
0.01467555393
0.01346474456
0.01268566453
0.0122356411
0.01199719428
0.01188578871
0.01184691913
0.01185022956
0.01188173132
0.01192385538
0.01194026219
0.01201812975
0.01225499036
0.01260801305
0.01327281034
0.01389053312
0.01484901479
0.02932566
0.03090353977
0.033691721
0.03584396155
0.032346522
0.02831159603
0.02455005309
0.02121217608
0.01848203741
0.01653596494
0.01578179533
0.01539025404
0.01507000495
0.01471383721
0.01439017419
0.01421402959
0.01409260437
0.01403082948
0.01409690168
0.01490671348
0.06207389118
0.1094003123
0.05124128715
0.02536080382
0.01629208961
0.01393892881
0.01502783229
0.01741381677
0.01955349379
0.02037739652
0.01975655943
0.01817682039
0.01631851554
0.01467589829
0.01346511037
0.01268606842
0.01223611893
0.01199780944
0.01188660569
0.01184808341
0.01185206147
0.0118846386
0.01192877056
0.01195606084
0.01202488223
0.01219253571
0.0124838571
0.01289529703
0.01319741472
0.0140031152
0.01638049241
0.02131749014
0.0315583603
0.0435881742
0.03738328651
0.0322965086
0.03237036279
0.02691856724
0.02331817116
0.02047083862
0.01822398758
0.01686505618
0.01592479774
0.01511858139
0.01445116569
0.01404154835
0.013815483
0.0137457355
0.01382371308
0.01464008224
0.0619114416
0.1094004867
0.05124139038
0.02536085654
0.01629209406
0.01393886608
0.01502769843
0.01741365976
0.01955348107
0.02037752568
0.01975710529
0.01817773231
0.01631943287
0.01467687246
0.01346614425
0.0126872008
0.01223744241
0.01199946446
0.01188870358
0.01185092064
0.01185449741
0.01188474182
0.01192600079
0.01196561199
0.01201358953
0.01208984144
0.0122224451
0.01245145477
0.01246471792
0.01277204963
0.01580104956
0.02580831014
0.04801766235
0.1260054728
0.09810391616
0.07746661492
0.07133704041
0.05657653411
0.04617136963
0.0380792669
0.03145571052
0.02625347675
0.0220764472
0.01890038187
0.01661534447
0.01510147655
0.01425087881
0.0139101166
0.01393912292
0.0148994628
0.06227598456
0.1094007696
0.05124157265
0.0253609568
0.0162921089
0.01393876434
0.01502747916
0.01741340381
0.01955348445
0.02037778321
0.01975799322
0.01817914946
0.01632088054
0.01467841189
0.01346777266
0.01268896504
0.01223948495
0.01200198523
0.0118912836
0.01185325699
0.01185395204
0.01187565286
0.01190964248
0.01194953503
0.01199337158
0.01204806231
0.01212409727
0.01222395445
0.01230397904
0.0132119175
0.01752271505
0.02973381846
0.05976213251
0.2179649233
0.03081461577
0.02842334691
0.03685214544
0.03500385758
0.04092663621
0.03926862532
0.03461975215
0.03016945677
0.02628446186
0.0227910918
0.01975717136
0.0173434503
0.01564865698
0.01463874899
0.01420662564
0.01494938318
0.06226196969
0.1094011536
0.05124184444
0.02536111444
0.01629214494
0.01393864108
0.01502719585
0.01741306941
0.01955355752
0.0203782217
0.0197591626
0.01818089988
0.01632274583
0.01468041666
0.01346989063
0.01269123585
0.012242074
0.01200511877
0.01189305894
0.01185165088
0.01184713712
0.01186071988
0.01188665695
0.01192348751
0.01196729623
0.01201671166
0.01206590612
0.01213373426
0.0122030954
0.01280179225
0.01605275599
0.02585098246
0.04748601358
0.124792453
0.09755405972
0.07686620393
0.06357493933
0.04902068665
0.03762437387
0.0297351948
0.02428761937
0.02024960704
0.0174233891
0.01546497937
0.01420643822
0.01352022393
0.01324889549
0.01327062501
0.0134891255
0.01455014593
0.0622003969
0.1094016279
0.05124217029
0.02536130395
0.01629219127
0.01393849414
0.01502685261
0.01741266367
0.01955366027
0.02037880513
0.01976058185
0.0181828966
0.01632493969
0.01468278601
0.01347238193
0.01269387729
0.0122450241
0.01200861568
0.01189453296
0.01184791505
0.01183773901
0.01184670336
0.01186705965
0.01189774529
0.01193962077
0.01198966753
0.01203427561
0.01208708213
0.01213699921
0.01244130168
0.01414305564
0.0192988084
0.02942667457
0.04090015811
0.0349111076
0.02960469682
0.0254519094
0.02163800431
0.01874810803
0.01663074159
0.0151754189
0.01415513687
0.01345853651
0.01300311767
0.01272749773
0.01261454517
0.01269710095
0.01294484225
0.01327384038
0.01437809233
0.06210904101
0.1094021772
0.05124257052
0.02536154818
0.01629226515
0.01393833739
0.01502646291
0.01741219898
0.01955378164
0.02037953745
0.01976220944
0.01818504184
0.01632736994
0.01468541763
0.01347513046
0.01269675965
0.01224816108
0.0120122582
0.01189745386
0.01184742797
0.01183212005
0.01183622562
0.01185248868
0.01187662228
0.01191090774
0.01195398725
0.01199184172
0.01202656312
0.01206014688
0.01211653394
0.01267082811
0.014565628
0.01824467635
0.02160165375
0.01967115533
0.01795715499
0.01655027376
0.01532288175
0.01434768979
0.01367519252
0.01319941726
0.01287377206
0.01265583321
0.01251960409
0.01245323191
0.01249428942
0.01267972139
0.01295871851
0.01329408884
0.01441287881
0.06220684792
0.1094027829
0.05124300887
0.0253618203
0.01629235212
0.01393816617
0.01502602996
0.0174116828
0.01955392534
0.02038041919
0.01976402176
0.01818731736
0.01632997389
0.01468822478
0.01347805251
0.01269987472
0.01225157288
0.01201604821
0.0119018441
0.01185080551
0.01183136668
0.01182967005
0.01183962507
0.01185659866
0.01188086049
0.01191076471
0.01193794127
0.0119633009
0.01198794193
0.01201694683
0.01213830273
0.01263134229
0.01368005035
0.01460278367
0.01410537016
0.01366479772
0.0133032163
0.01300237541
0.01277436196
0.01261352828
0.01250082339
0.01241946984
0.01237054073
0.01234704292
0.01236047437
0.01247011545
0.01264816629
0.01287598549
0.01316835926
0.01425146211
0.06212047315
0.1094034291
0.05124350651
0.02536214509
0.01629247394
0.01393799861
0.01502557044
0.01741113234
0.01955418889
0.02038150176
0.01976597689
0.01818965738
0.01633268498
0.01469114712
0.01348109287
0.01270323012
0.01225600373
0.01202133092
0.01190695917
0.01185552659
0.01183454615
0.01182869537
0.01183151902
0.01184054279
0.01185612712
0.01187609017
0.01189544709
0.01191417719
0.01193681068
0.01196819844
0.01200658812
0.01209372377
0.01228185956
0.01244240493
0.01238976522
0.01234726182
0.012313098
0.01228965687
0.01227490759
0.01226854317
0.0122685538
0.01225593282
0.01224518201
0.01225489804
0.01229356101
0.01242441271
0.01260087872
0.01282616732
0.01313618758
0.01424886055
0.06219829934
0.1094040908
0.051244048
0.02536250871
0.01629264139
0.01393787197
0.01502514029
0.0174106182
0.01955481821
0.02039154435
0.01978073524
0.01820805869
0.01635391659
0.01471426426
0.01350546199
0.0127286969
0.01228297234
0.01204978048
0.01193682928
0.01188573555
0.01186426507
0.01185675125
0.01185620302
0.01186026242
0.01186879776
0.01188024291
0.01189266746
0.01190558542
0.01192697639
0.01195976626
0.01199667394
0.01203750759
0.01208231186
0.01211889346
0.01214478616
0.01216350156
0.01217681722
0.01219018517
0.01220419147
0.0122191346
0.01223447021
0.01223049106
0.01221106289
0.01221401682
0.01224863377
0.01236868633
0.01253429446
0.01274863275
0.0130570591
0.0141550475
0.06217354953
0.1094047576
0.05124471992
0.02536303822
0.01629308338
0.01393806152
0.0150250526
0.01741053332
0.01956207191
0.02041231933
0.01981109454
0.01824595485
0.01639752285
0.01476169533
0.01355540396
0.01278053336
0.01233657804
0.01210488883
0.01199349582
0.01194414316
0.01192448152
0.01191837058
0.01191844965
0.01192174171
0.01192725073
0.01193501171
0.01194482984
0.01195662177
0.01197279055
0.01199571284
0.01201961737
0.01204852259
0.01208633253
0.01211827004
0.01214248743
0.01216052489
0.01217408117
0.01218607009
0.0121977382
0.01221009379
0.01222315782
0.01221762538
0.0121979212
0.01219582706
0.01223476035
0.01235912976
0.01252447392
0.01273662986
0.01304834966
0.01414948847
0.06221957387
0.1094054081
0.05124604203
0.02536422595
0.01629483163
0.01394006058
0.01502715591
0.01741885921
0.01958267451
0.02044798371
0.01986097401
0.01830671266
0.0164660474
0.01483558822
0.01363287859
0.01286073308
0.01241894037
0.01218880671
0.01207885419
0.01203107399
0.01201321615
0.0120092
0.01201161473
0.01201743136
0.01202563965
0.01203571847
0.01204752868
0.01206027135
0.01207197203
0.01208200778
0.01208820278
0.01209449323
0.01211663849
0.01214014593
0.01215831171
0.01217246773
0.01218226103
0.01218962824
0.01219760342
0.01220784212
0.01221975596
0.01221328487
0.01219250935
0.01218930672
0.01222885074
0.012352212
0.01251296847
0.01271882055
0.01301870887
0.01410514722
0.06221818899
0.10940603
0.05125086959
0.02536894469
0.01630233372
0.01394933189
0.01504360468
0.01744383046
0.01962541399
0.02051362123
0.01994683391
0.01840843663
0.01657936686
0.01495765963
0.01376123739
0.01299423827
0.01255597559
0.01232829573
0.01222036362
0.01217451032
0.01215871875
0.01215697484
0.01216185213
0.0121703064
0.01218127903
0.01219371518
0.01220735781
0.01222132595
0.01223391698
0.01223658781
0.01223515114
0.01222694168
0.0122247255
0.01223136598
0.01223828407
0.01224423821
0.01224701089
0.01224620848
0.0122457747
0.01224867563
0.01225445624
0.01225207657
0.01224270292
0.01224460788
0.01228254375
0.01239407653
0.01253931544
0.01273695332
0.01302818887
0.01410370901
0.06224495043
0.1094065917
0.05127334164
0.0253904653
0.01633071764
0.01401163417
0.01510216469
0.01751418632
0.01973095046
0.02066066064
0.02013369986
0.01862880076
0.01682439753
0.01522212794
0.01404029636
0.01328473762
0.01285372351
0.01263070423
0.01252625873
0.01248342958
0.01247062083
0.01247200976
0.01248030789
0.01249205394
0.01250580109
0.01252202241
0.01253789653
0.01255510197
0.01256875812
0.01257833754
0.01257970742
0.01256924701
0.01254676939
0.01253254275
0.01252698219
0.01252300015
0.01251382813
0.01249248184
0.0124702664
0.01245435194
0.01244524837
0.01244091793
0.01243923538
0.0124507558
0.01250718523
0.01260014222
0.01270050277
0.01284858755
0.01310182282
0.01413694321
0.06227998954
0.1094195068
0.05136671356
0.02549116324
0.01648138042
0.01416336523
0.01523391422
0.0176999001
0.01997173969
0.02096406679
0.02049971633
0.01905288498
0.01729389277
0.01572883145
0.01457675762
0.01384199368
0.01342398129
0.01320933462
0.01311066985
0.01307244037
0.01306360248
0.01306888117
0.01308071114
0.01309682214
0.01311425609
0.01313432944
0.01315434503
0.013174811
0.0131926889
0.01320469627
0.01320944825
0.01320100281
0.0131772348
0.01314342649
0.01312588737
0.01311228179
0.01308676901
0.01301378634
0.01293711205
0.01287496916
0.01282896108
0.01279517661
0.01276943733
0.01278260611
0.0128313811
0.01290373671
0.01297388132
0.01306970459
0.01326985194
0.01424474856
0.06237707262
0.1096157371
0.05172320693
0.0264358526
0.01717814045
0.01467550942
0.01568945996
0.01824599637
0.0205952841
0.02169092573
0.02135804166
0.02005353624
0.01841825427
0.01694725516
0.01586307323
0.01517300303
0.01478238649
0.01458356517
0.01449379507
0.01446099655
0.01445640928
0.01446512046
0.01448109691
0.01450081967
0.0145232969
0.01454764781
0.01457289708
0.01459799031
0.01462108231
0.01463928016
0.0146487813
0.01464713055
0.01462548976
0.01459111505
0.01456175673
0.01454385018
0.01452243924
0.01433820569
0.01414661127
0.01398803599
0.01386501163
0.01376781314
0.01372216047
0.01371552513
0.01372887023
0.01376271526
0.01379974053
0.01386203677
0.01396240444
0.01469005954
0.06290753082
0.1106595996
0.05038123249
0.02689506656
0.01794189097
0.01559051554
0.01663241869
0.01905877375
0.02128510639
0.02234376994
0.02205006314
0.02080812414
0.01923817223
0.01782558596
0.01677723137
0.01610198454
0.01571418826
0.01551272643
0.01541794492
0.0153786587
0.01536621053
0.01536618982
0.01537296005
0.01538415893
0.01539900128
0.01541722094
0.01543877704
0.01546162611
0.01548533566
0.0155066538
0.01552364787
0.01553773219
0.01555646969
0.01559337931
0.01558557714
0.01557946963
0.015566405
0.01537934209
0.01517316829
0.01499872724
0.01486228177
0.01475331708
0.01473309222
0.01474173759
0.01476064277
0.01478830781
0.01481987274
0.01486391781
0.01485705798
0.01578517153
0.06613596905
0.1173528167
0.04968538141
0.0270866061
0.01908304979
0.01735818247
0.01885023223
0.02165094846
0.02424547083
0.02577581169
0.02614350494
0.02559816654
0.02462637483
0.02365462191
0.02290174563
0.02241037846
0.02212953993
0.02198660388
0.02192368389
0.02190333587
0.02190470725
0.02191724
0.02193639204
0.02196019212
0.02198785187
0.02201850453
0.02205234044
0.02208778907
0.02212355315
0.02215811079
0.02219603665
0.02248157221
0.0234212547
0.02522930841
0.02705687961
0.02651791255
0.02550303865
0.02462010767
0.02387032499
0.02328795445
0.02284934176
0.02253064272
0.0224038411
0.02233139531
0.02227609948
0.02223025053
0.02219110233
0.02217124094
0.02214998823
0.02434123322
0.1162247535
0.1103628458
0.04592531094
0.02212789689
0.01436464749
0.01288696436
0.01447720204
0.01721660504
0.0195782579
0.02062654913
0.02022076184
0.01882378539
0.01710462521
0.01556308317
0.01441888305
0.01368081825
0.0132555299
0.01303297148
0.01292638134
0.01287991271
0.01286229713
0.01285776818
0.0128590819
0.0128631653
0.01286879975
0.01287559568
0.01288322992
0.01289156818
0.01290057383
0.0129110293
0.01311470666
0.01393984637
0.01588908688
0.01929192356
0.02313090876
0.02203921511
0.02000414008
0.01832184617
0.0169040575
0.01578486773
0.01492335868
0.0142900344
0.01384440266
0.01354097881
0.01333715031
0.0132001228
0.01310874
0.01305958497
0.01314302339
0.01434103533
0.06414061132
0.1003284087
0.04241393062
0.02107684221
0.01272744482
0.01090109022
0.01228453351
0.01490009494
0.01718373452
0.0181201027
0.01750259922
0.01579676974
0.01371370201
0.01182367544
0.01040099453
0.009469817203
0.008925618772
0.00863668576
0.008495611218
0.008431722778
0.008404759597
0.008394198825
0.008390471102
0.008389484869
0.008389570947
0.008390064322
0.008390845869
0.008391674412
0.008392570453
0.008393310497
0.008394397759
0.00839748631
0.008412084598
0.008449616427
0.00850462498
0.00849251712
0.008478512077
0.008463102978
0.008447404974
0.008432640337
0.008419851479
0.008411494324
0.008407229977
0.008405741502
0.008405903408
0.008406771009
0.008407630219
0.008408593613
0.008690686439
0.008623045362
0.01279485711
0.0987085388
0.04175983886
0.02088061812
0.01273371081
0.01100536236
0.01243437599
0.01505038824
0.01729444774
0.01817151565
0.01749939047
0.0157582695
0.01366045953
0.01176973326
0.01035275132
0.009428413854
0.008889764777
0.008604566906
0.00846575864
0.008403195496
0.008377040714
0.008367024236
0.008363713497
0.00836305545
0.008363411378
0.008364150893
0.008365023574
0.008365917187
0.008366706491
0.008367300691
0.008367518682
0.008367164334
0.008365982009
0.008363930048
0.008361720182
0.008360553472
0.00836000011
0.008359453813
0.008358762112
0.008358021378
0.00835779132
0.008359400031
0.008361841757
0.008364660723
0.008367529079
0.00837002999
0.008371974049
0.008372938786
0.008676124036
0.00859869344
0.01060574041
0.09880272513
0.04222075344
0.02117274137
0.01277247167
0.01099124058
0.0123871501
0.0149933666
0.01724762447
0.01814533896
0.01749316581
0.01576445863
0.01367053992
0.01177786819
0.01035651461
0.009427782263
0.008885781078
0.008598401936
0.008458299835
0.008394984592
0.008368363119
0.008358010187
0.008354420647
0.00835349357
0.008353582276
0.008354036196
0.008354630829
0.008355253957
0.008355811597
0.008356180129
0.008356257994
0.00835575088
0.008354516767
0.008352926302
0.008352099757
0.00835177892
0.008351743376
0.008351662539
0.00835145817
0.008351238161
0.00835099538
0.008350794952
0.008351796702
0.008354434652
0.008358113797
0.008361980399
0.008365337428
0.008419388631
0.008941114389
0.008796831057
0.01073446504
0.09921070409
0.04292733312
0.02119551137
0.01276144394
0.01103582701
0.01245057527
0.01504933855
0.01727904188
0.01814848274
0.01747555978
0.01573764385
0.01364384814
0.01175607151
0.01034057275
0.009416650907
0.0088778853
0.008592395764
0.008453276823
0.008390417597
0.008363974756
0.008353665475
0.008350056238
0.008349082745
0.008349108566
0.008349499474
0.008350010996
0.008350527641
0.008350958381
0.008351184044
0.008351063712
0.008350465487
0.008349211632
0.008348102562
0.008347621111
0.008347564156
0.008347755771
0.008347929738
0.008348045583
0.008348159144
0.008348178024
0.008348098098
0.008348121001
0.00834960945
0.008352968476
0.008357297637
0.008415187232
0.008495410071
0.008974673221
0.008819598519
0.01074576282
0.09921116977
0.04292525115
0.02119792608
0.01275991396
0.01103500795
0.01246530335
0.01506390437
0.01728729625
0.01814806176
0.01746794134
0.01572636454
0.01363232382
0.01174631734
0.01033314306
0.00941122044
0.008873841392
0.008589174702
0.008450478022
0.008387797565
0.008361399643
0.008351066645
0.008347398995
0.008346351509
0.008346296773
0.008346608768
0.008347040248
0.008347475768
0.0083478253
0.008346785021
0.008347219103
0.008357987746
0.008360723596
0.00835583142
0.00835248248
0.008350408244
0.008349293361
0.0083486742
0.00834846664
0.008348543931
0.008348610385
0.008348345633
0.008347957619
0.008348097793
0.00835565727
0.008381629698
0.008481343165
0.008540144107
0.008994698426
0.008833928397
0.01075797958
0.09921072228
0.04292417902
0.02119858765
0.01275943618
0.01103517404
0.01248069644
0.0150820864
0.01729772043
0.01814797296
0.0174593967
0.01571371991
0.01361957525
0.01173578402
0.01032546638
0.009406019966
0.008870384782
0.008586780281
0.008448658483
0.008386255691
0.008359973399
0.00834967307
0.008345997494
0.008344921936
0.008344827024
0.008345096091
0.008345486277
0.008345887389
0.008346306232
0.008351667076
0.008354288377
0.008372676916
0.008377192542
0.008367260333
0.0083602495
0.008355687313
0.008352968331
0.008351441734
0.008350618648