/*--------------------------------*- C++ -*----------------------------------*\
| =========                 |                                                 |
| \\      /  F ield         | OpenFOAM: The Open Source CFD Toolbox           |
|  \\    /   O peration     | Version:  2.2.1                                 |
|   \\  /    A nd           | Web:      www.OpenFOAM.org                      |
|    \\/     M anipulation  |                                                 |
\*---------------------------------------------------------------------------*/
FoamFile
{
    version     2.0;
    format      ascii;
    class       volScalarField;
    location    "1";
    object      k;
}
// * * * * * * * * * * * * * * * * * * * * * * * * * * * * * * * * * * * * * //

dimensions      [0 2 -2 0 0 0 0];

internalField   nonuniform List<scalar> 
86889
(
0.0136162435
0.008962461911
0.007620655673
0.008261683657
0.01124657061
0.01724352246
0.02656403678
0.03870899758
0.05239295009
0.06593922297
0.0777586332
0.08697197991
0.09346296122
0.09763207452
0.1000919268
0.1014341096
0.102115793
0.1024414854
0.1025906976
0.1026592995
0.1026941568
0.1027166319
0.1027358985
0.1027554345
0.1027772034
0.1028007104
0.1028250765
0.1028499215
0.1028735436
0.1028963947
0.1030597562
0.1035790327
0.1045302817
0.1053860839
0.1048174308
0.1040924174
0.1035876582
0.1032862449
0.1031556109
0.1031303216
0.1031588886
0.1032613428
0.1033326708
0.1033519888
0.1033272655
0.1032779614
0.1032284614
0.1032061698
0.1045852376
0.1562943926
0.01309574524
0.009769820352
0.007461894787
0.007264605267
0.009529089929
0.01497662068
0.02392477773
0.03581148012
0.04922840363
0.06240463759
0.07383878183
0.08272821331
0.08898865608
0.09300732183
0.09537538834
0.09666476319
0.0973177405
0.09762787493
0.09776795081
0.09782995905
0.09785885325
0.09787561462
0.09788921707
0.09790305867
0.09791808442
0.09793528104
0.09795270368
0.09797103792
0.09798612217
0.09799933876
0.09800932641
0.09802220213
0.09804344846
0.09803931322
0.09802842752
0.09804739328
0.09797003866
0.0979512236
0.09797494766
0.09802061393
0.09806587888
0.09814577315
0.09820642952
0.09823647999
0.09824379274
0.0982386467
0.09824019547
0.09821669953
0.0988556312
0.1329931586
0.01300640995
0.01056062781
0.007281018651
0.006627939915
0.008583555435
0.01396303098
0.02316092061
0.03534728691
0.04893766325
0.06212782896
0.07347278293
0.08222519641
0.0883450012
0.09225494336
0.09455305901
0.09580281776
0.09643594262
0.09673791042
0.09687637229
0.09694032532
0.09697310872
0.09699414814
0.09701167102
0.09702867897
0.0970461805
0.09706430289
0.09708216831
0.09709851868
0.09711168762
0.09711935514
0.09711942665
0.09710729293
0.09708501329
0.09707403976
0.09705984764
0.09707089862
0.09698112176
0.09694686904
0.09695375556
0.09698384936
0.0970174257
0.09706179242
0.09710296352
0.0971259996
0.09713778391
0.09714216077
0.09716288724
0.09727360621
0.09780350047
0.1310749787
0.01298824741
0.01034133772
0.00691674316
0.006278436053
0.008261989639
0.01365536552
0.02281645459
0.03503341011
0.04862438865
0.06175310151
0.07298734164
0.08161805987
0.08763180414
0.09146047335
0.09370411692
0.09492084402
0.09553566092
0.09582815509
0.09596178981
0.09602312779
0.09605421429
0.09607387084
0.09609009975
0.09610563053
0.09612158792
0.09613786594
0.09615382465
0.09616824451
0.0961790306
0.0961837787
0.09617870895
0.09616101911
0.09613553079
0.09612358272
0.09611244603
0.09610322216
0.09606509079
0.09604419183
0.09604803369
0.09607044881
0.09610213164
0.0961269439
0.09615988084
0.09619766421
0.0962328646
0.09625706697
0.09631727028
0.09654169134
0.09734234744
0.1305927974
0.01298789736
0.01028566257
0.006867364902
0.006205933158
0.008192500202
0.01360992143
0.02275164347
0.03496916409
0.04854136942
0.06162785589
0.07280376597
0.08137626634
0.08733709236
0.09112298323
0.09333698941
0.09453560587
0.0951397606
0.09542598525
0.09555565165
0.09561410526
0.09564275439
0.09566012161
0.09567415088
0.09568772787
0.0957021183
0.09571703525
0.09573178053
0.09574476395
0.09575383028
0.09575571089
0.09574678713
0.09572675457
0.09571234847
0.0957039627
0.09569860342
0.0956957444
0.09568830166
0.09568868906
0.09570420841
0.09573323156
0.095768965
0.09580035787
0.09582398473
0.09586145332
0.0959095869
0.09596575258
0.09608363315
0.09636608131
0.09723370373
0.1304946681
0.01298779286
0.01027227009
0.006853809
0.006186491222
0.008167350405
0.01361151291
0.02276913624
0.03498563597
0.04853976774
0.06159150237
0.07272248928
0.08125003614
0.08717041162
0.09092478492
0.0931161133
0.09430085336
0.09489694964
0.09517835723
0.09530482671
0.09536080724
0.09538726043
0.09540262611
0.09541463697
0.09542637162
0.09543911922
0.0954527104
0.09546576076
0.09547827454
0.09547963011
0.09547821231
0.09547128576
0.09546811459
0.09546972149
0.09547119501
0.0954735188
0.09547815848
0.09548480277
0.09549747358
0.09552231671
0.0955580179
0.09558625122
0.09559971987
0.09561849836
0.09564076475
0.09570669995
0.09581166587
0.09598272384
0.0963103188
0.09721788456
0.1304780989
0.01298772848
0.01026966082
0.006850647609
0.006181255259
0.008160238884
0.01361737951
0.02280404923
0.03502166455
0.04856315621
0.06159301733
0.07269653365
0.08119611019
0.08709159048
0.09082669216
0.0930040862
0.09418000562
0.09477082806
0.09504897173
0.09517320309
0.09522731334
0.09525194399
0.09526542267
0.09527563929
0.09528573476
0.09529654424
0.09530867404
0.09532157535
0.09533373384
0.09534404081
0.09535101651
0.09535809856
0.09537771765
0.09539416315
0.09540409187
0.09541353257
0.09542431669
0.09543847681
0.09545920624
0.09548933152
0.09552947481
0.09555121425
0.09555087684
0.09556480947
0.09559105527
0.09566815841
0.09578674625
0.09595958283
0.09628570641
0.09719266361
0.1304400758
0.0129876697
0.01026910069
0.006849938086
0.006180109105
0.008158894135
0.01361653144
0.02282586699
0.03506249633
0.04859584463
0.06160867524
0.07269047033
0.08116762571
0.08704336978
0.09076332405
0.0929300036
0.09409888907
0.09468551644
0.09496101598
0.09508320353
0.09513546709
0.09515825015
0.09516982794
0.09517794568
0.09518598183
0.0951953727
0.09520653584
0.09521938591
0.0952372515
0.09526339602
0.09529039707
0.09531977971
0.09535421378
0.09537755558
0.09539194222
0.09540292333
0.09541495173
0.0954340557
0.09546027306
0.09549590015
0.09554152864
0.09556905882
0.09557408625
0.09558523463
0.09561277862
0.09569431949
0.0958197977
0.09600187005
0.09634100257
0.09726290424
0.1304764325
0.0129876103
0.01026896479
0.00684978265
0.006179990195
0.008159144863
0.01361770579
0.02282848079
0.0350812564
0.04862646073
0.06162737935
0.07269327187
0.08115346299
0.08701425985
0.09072262387
0.09288101882
0.09404418801
0.09462710811
0.0948999482
0.09501995196
0.09507023153
0.09509143424
0.09510210871
0.09511117202
0.09512311605
0.09513762474
0.09515281214
0.09516810925
0.09519330722
0.09523144034
0.09527219191
0.09531295861
0.09535116382
0.09537255028
0.09538054503
0.09538443163
0.09539002721
0.095409325
0.09544326736
0.09549260254
0.09555538667
0.09559935054
0.09561444592
0.09563642096
0.09565720714
0.09571614973
0.09582273645
0.09598268953
0.09630168807
0.09720607039
0.1303963132
0.01298755152
0.01026887865
0.006849720819
0.006180033575
0.008159576702
0.01361903717
0.02283122573
0.03508472458
0.04864393127
0.06163990088
0.07269843404
0.08115012151
0.08700300887
0.09070490817
0.09285834053
0.09401752567
0.09459751205
0.0948681167
0.09498713538
0.0950372618
0.09505995253
0.09507458439
0.09508965784
0.09511022392
0.09513515998
0.09515903879
0.09518207487
0.09520964584
0.09524690695
0.09528797466
0.09532901376
0.0953688523
0.09539347089
0.09540678437
0.09541806236
0.09542754716
0.09544203187
0.09546612254
0.0955081518
0.09556930726
0.09561693507
0.09565267127
0.0956886303
0.0957142026
0.09577985287
0.09589536654
0.09607693868
0.0964230652
0.09735215715
0.1304860921
0.0129874942
0.01026882043
0.006849685609
0.006180107223
0.008160024784
0.01362032712
0.02283383095
0.03508825279
0.04864865445
0.06164537723
0.07270416879
0.08115504748
0.08700645073
0.09070658522
0.09285815603
0.09401513749
0.09459339956
0.09486334399
0.09498217734
0.09503377949
0.09506129302
0.09508434168
0.09510749141
0.09513425707
0.09516755216
0.0952043781
0.09523881686
0.09527212573
0.09530884656
0.09534448943
0.09537792806
0.09540933151
0.09543336818
0.09545556008
0.09547638088
0.09548787739
0.09548925252
0.0955051938
0.09554476269
0.09560764998
0.09567526036
0.09574127649
0.09579011385
0.09581913927
0.0958581602
0.09593334446
0.09606443134
0.09635871962
0.0972436759
0.1303407522
0.0129874405
0.01026877265
0.006849659995
0.006180181456
0.008160439423
0.01362150606
0.02283621154
0.03509159814
0.04865316505
0.06165050583
0.07270948493
0.08115967771
0.08700972017
0.09070819345
0.09285805343
0.09401346246
0.09459033874
0.09485886588
0.09497840178
0.09503475153
0.09506887844
0.09509888777
0.09512990735
0.09516328873
0.09520566869
0.09525936863
0.09531211407
0.09536406705
0.09541188461
0.09545089268
0.09548153471
0.09550504601
0.09554259866
0.09561291337
0.09571205596
0.09577988727
0.09580905628
0.09579385947
0.09580293246
0.09582301701
0.0958403161
0.09584895549
0.09585346283
0.09586143557
0.09590750957
0.09599942905
0.09617084883
0.09650508304
0.09743208132
0.1304694757
0.01298739177
0.01026873281
0.006849639897
0.006180250853
0.008160811634
0.01362255656
0.02283833426
0.03509460516
0.04865731515
0.06165521413
0.07271432368
0.08116395266
0.08701275642
0.09070965831
0.09285789521
0.09401177335
0.09458712861
0.09485578031
0.09497898886
0.09504100483
0.09507999064
0.09511355783
0.09515252578
0.09519857059
0.09525019179
0.09531569228
0.09539839388
0.09547995095
0.09555495401
0.09561367869
0.09565199504
0.09568203932
0.09573633923
0.09586410251
0.09612695731
0.09621056093
0.09621677247
0.09615265342
0.09607364406
0.0960573693
0.09606913402
0.09608982369
0.09610493592
0.09610580005
0.0961263681
0.09615489768
0.09623988454
0.09649164561
0.09734906843
0.1303196657
0.01298734966
0.01026870605
0.006849630316
0.006180317675
0.008161137353
0.0136234634
0.02284016225
0.03509720184
0.04866097186
0.06165933513
0.07271847413
0.08116767274
0.08701539016
0.09071087881
0.09285762938
0.0940100271
0.09458384156
0.09485408078
0.09498314336
0.09505110371
0.09509402716
0.09513223977
0.09517637923
0.09522851286
0.09529021633
0.09537042415
0.0954877612
0.09561483229
0.09573261678
0.09581803621
0.09586402589
0.09591508194
0.09605953924
0.09638647017
0.09698340877
0.09771898378
0.09783684136
0.09759721713
0.09721456284
0.09689779695
0.09665367686
0.09645648595
0.096305299
0.09622147498
0.09619397742
0.09622085296
0.0963216787
0.09659640672
0.09746856362
0.1303701738
0.01298731538
0.01026868529
0.006849623454
0.006180373228
0.00816140404
0.01362420267
0.02284165083
0.035099329
0.04866400126
0.06166271777
0.07272179897
0.08117068653
0.08701751092
0.09071182107
0.09285730508
0.09400837845
0.09458073055
0.09485176972
0.09498424825
0.09505736047
0.09510835052
0.09515391301
0.09519978535
0.09525545218
0.09534230946
0.09548553896
0.0956938774
0.09588459942
0.09605759953
0.09611049126
0.09616722669
0.09617764668
0.09631732232
0.09669646001
0.09809868669
0.09948390895
0.1009215955
0.1035027545
0.1023162131
0.1013512435
0.1008076621
0.100332591
0.09966095422
0.09879079253
0.09791451554
0.09725823234
0.09687894864
0.09685502438
0.09751862725
0.1302867564
0.01298728998
0.01026867565
0.006849623719
0.006180418725
0.008161604679
0.0136247526
0.02284275449
0.03510095776
0.04866631425
0.06166520983
0.07272416302
0.08117286176
0.08701902941
0.09071246224
0.09285697925
0.09400699581
0.09457810824
0.09484832611
0.09498011708
0.09505517356
0.09511416348
0.09516436146
0.09520461369
0.09526407067
0.09538699299
0.09564618422
0.09609201756
0.09640995074
0.09680576401
0.09674285306
0.09671248244
0.09668222024
0.09673678975
0.09701165455
0.09759038581
0.09840784043
0.09868680059
0.09877496144
0.09891887725
0.09892722734
0.09868930457
0.09828595109
0.09785639977
0.09743329618
0.09714211762
0.09691577415
0.09678438236
0.0969012263
0.09763635507
0.1303468672
0.01298727433
0.01026866998
0.006849623744
0.006180446189
0.008161724743
0.0136250816
0.02284341657
0.03510195107
0.04866773552
0.06166671924
0.07272556675
0.08117416092
0.08701992822
0.09071282211
0.09285672925
0.09400606372
0.09457634279
0.09484551458
0.09497561339
0.09504993043
0.09511030362
0.09516253539
0.09518895465
0.09528366043
0.09554411794
0.09609858878
0.09703927764
0.09781044436
0.09821289514
0.09820837736
0.09799140401
0.09838300676
0.09881880841
0.09834447757
0.09800833308
0.09764664801
0.09745231032
0.09751048177
0.09814814688
0.09866758861
0.09879075096
0.09862086504
0.09828029855
0.09785838492
0.09752492199
0.0972159337
0.09698655645
0.09699952381
0.09761441232
0.130247741
0.01298726889
0.01026867203
0.006849626716
0.006180457677
0.008161767188
0.01362519341
0.02284363703
0.03510227383
0.04866819548
0.06166720546
0.07272601727
0.08117458047
0.08702021778
0.09071293395
0.09285663321
0.09400571914
0.09457566012
0.09484430719
0.09497361417
0.09504612155
0.09510396887
0.09515214194
0.09516376836
0.0952713188
0.09564010762
0.09640489887
0.09832221833
0.09967048522
0.1003344819
0.1037428403
0.1041755644
0.1063310272
0.108151517
0.10579019
0.1033862879
0.1014080123
0.09968213373
0.09868567995
0.09817328167
0.09833961274
0.09850538363
0.09847032829
0.0982034979
0.09782684652
0.09751004786
0.09724991122
0.09709205307
0.09716100711
0.09784041712
0.1304632143
0.01298727384
0.01026867132
0.00684962317
0.006180444051
0.008161718998
0.01362506544
0.02284338144
0.03510189346
0.04866765058
0.06166662897
0.07272548429
0.08117408348
0.08701987021
0.09071278879
0.09285672019
0.09400607582
0.09457637334
0.09484556432
0.09497568558
0.09505004257
0.09511046997
0.09516278816
0.09518978306
0.09528425506
0.09554575749
0.09610213156
0.09703996114
0.097819806
0.09845203793
0.09962461543
0.1030541196
0.1099921806
0.1167949126
0.1111921011
0.1067782505
0.1059910519
0.1022019604
0.09999082805
0.09864650032
0.09786764907
0.0977323836
0.0977276207
0.09757781413
0.09729604763
0.09705561556
0.09687143266
0.09678929734
0.09690359163
0.09760213737
0.1303061893
0.01298728918
0.01026867228
0.006849618797
0.006180413564
0.008161591695
0.01362471267
0.02284266626
0.03510081261
0.04866610492
0.06166498298
0.07272395029
0.08117266741
0.08701888308
0.09071237414
0.09285694689
0.09400701143
0.09457816418
0.09484841844
0.09498025232
0.09505535614
0.09511439561
0.09516466135
0.09520512698
0.09526390439
0.09538600427
0.09564469956
0.09609136724
0.09640726451
0.0968689091
0.09923789814
0.1065172908
0.1204292894
0.1550455775
0.1379905752
0.1248896645
0.1178592107
0.1090681504
0.1031569506
0.09925013778
0.09696186553
0.09589159128
0.09558686046
0.09565622456
0.09581841705
0.09599418321
0.09615925078
0.09636921325
0.09671885927
0.09762755165
0.1304868207
0.01298731404
0.01026868069
0.006849617323
0.00618036479
0.008161379079
0.0136241334
0.0228415062
0.03509909975
0.048663677
0.06166236042
0.0727214544
0.08117037568
0.08701727582
0.09071167738
0.09285724861
0.09400839663
0.09458080938
0.09485189826
0.09498442766
0.09505760171
0.09510868435
0.09515437433
0.0952003626
0.09525535142
0.09533951788
0.09548266358
0.09568846658
0.09588555932
0.0966789831
0.1000032982
0.1087843868
0.1265693751
0.178673139
0.1816531591
0.1683678342
0.1594361962
0.1466198234
0.1330377446
0.1219835268
0.1134274573
0.1071324584
0.1031195029
0.1005476194
0.09887654207
0.09778703374
0.09712607773
0.09681713406
0.09684700855
0.09758483783
0.1304287147
0.01298734779
0.01026870456
0.006849625842
0.006180308378
0.008161104674
0.01362337134
0.02283996995
0.0350968973
0.04866054695
0.06165886192
0.07271800483
0.0811672533
0.08701507283
0.09071068373
0.0928575507
0.09401004743
0.09458394407
0.09485424618
0.09498336785
0.09505140517
0.09509443537
0.09513278284
0.09517706387
0.09522949429
0.09529474151
0.09537333062
0.09548882942
0.09561792621
0.09613765151
0.09869085984
0.1058602499
0.1195069338
0.1538979937
0.137264638
0.1241652882
0.1160036184
0.1075152827
0.1018377277
0.09858942083
0.09691951342
0.09616280411
0.09594848855
0.09589588567
0.09589238288
0.09593579836
0.09603969317
0.0962330466
0.0965724791
0.09751314433
0.1304717508
0.01298738949
0.01026872961
0.006849633209
0.006180238976
0.008160772137
0.01362244525
0.02283810085
0.03509423466
0.04865680505
0.06165464134
0.07271374041
0.08116343447
0.08701236263
0.09070941304
0.09285779176
0.09401178898
0.09458724034
0.09485596503
0.09497923669
0.0950413326
0.09508041908
0.09511412118
0.09515322846
0.09520467404
0.09526824727
0.09533148672
0.09540961801
0.09549005571
0.09575965875
0.0971048079
0.1009955688
0.1080307569
0.1146292017
0.1093869773
0.1050365976
0.1018884118
0.09937083405
0.09772568317
0.09674913526
0.0962772768
0.09607519272
0.09600581562
0.09598527497
0.09596261965
0.09594059719
0.09600668605
0.09619315834
0.09652179628
0.09743713521
0.1304189994
0.01298743779
0.01026876944
0.006849652388
0.006180168141
0.008160395279
0.01362137979
0.02283594489
0.035091172
0.0486525846
0.0616498474
0.07270880066
0.08115907585
0.08700926437
0.0907079085
0.09285793064
0.09401347502
0.09459046042
0.09485907775
0.0949786962
0.09503511918
0.09506933112
0.09509946063
0.09513182286
0.09517456016
0.09522827574
0.09527751173
0.09532552682
0.0953730278
0.09543651115
0.09587860428
0.09734356967
0.1000498278
0.102237059
0.1003796028
0.09886962908
0.09776036193
0.09691177672
0.09633145868
0.09603815703
0.095916562
0.09589015649
0.09589516826
0.09589479027
0.09587798819
0.09588926587
0.09600518919
0.09621421394
0.09655454269
0.09748184949
0.1304962039
0.01298749104
0.01026881091
0.006849672986
0.006180090474
0.008159976392
0.01362019026
0.02283354019
0.03508778273
0.04864801755
0.06164464803
0.07270340233
0.08115438008
0.08700594721
0.09070626987
0.09285801737
0.09401514466
0.09459352282
0.09486356382
0.0949824792
0.09503417262
0.0950618096
0.09508498815
0.09510942677
0.09514037356
0.0951776541
0.09521196116
0.09524472978
0.09527664632
0.09531200536
0.09541705396
0.09580219257
0.09659848458
0.09722860873
0.09671768788
0.09631189082
0.09601997311
0.09581598162
0.095706257
0.09567618534
0.09569739904
0.09573494974
0.09577451695
0.0958005816
0.09581883763
0.0958811948
0.09599479547
0.0961640039
0.09646880117
0.09736474398
0.1304220504
0.01298754787
0.01026886744
0.006849708471
0.006180019002
0.008159529946
0.01361889696
0.02283092104
0.0350842233
0.04864325214
0.06163911171
0.07269759926
0.08114940285
0.08700247099
0.09070457393
0.0928581955
0.09401753177
0.09459762853
0.09486832821
0.09498744421
0.09503766256
0.09506043863
0.09507515093
0.09509031041
0.09511101432
0.09513615254
0.0951602133
0.09518342641
0.09521113407
0.095248491
0.09529000826
0.09536570249
0.09551170178
0.095621983
0.09555756477
0.09551396414
0.09548684248
0.09548047011
0.09549514491
0.09553372148
0.09559224104
0.09563695712
0.09566799143
0.09569993924
0.09573091236
0.09581621331
0.09594083119
0.09611884945
0.09644557042
0.09736777531
0.1304743191
0.01298760616
0.01026894293
0.006849764982
0.006179973613
0.008159097063
0.01361756458
0.02282817553
0.03508076452
0.0486257833
0.06162657545
0.07269240325
0.08115271798
0.08701370189
0.09072227654
0.09288086064
0.09404416257
0.09462717132
0.09490008925
0.09502019352
0.09507057387
0.09509189281
0.09510267697
0.09511184868
0.09512390408
0.09513851756
0.09515382463
0.09516925284
0.09519463544
0.09523307365
0.09527383928
0.09531451569
0.09535253946
0.09537368789
0.09538060047
0.09538169405
0.0953847951
0.09540609322
0.09544437455
0.09549839316
0.09556493668
0.09561046496
0.09562517779
0.095646618
0.09567438364
0.09575461468
0.0958749475
0.09604702229
0.09637483708
0.09728883993
0.130440533
0.01298766496
0.01026907248
0.00684991779
0.006180095898
0.008158863735
0.01361641731
0.02282559749
0.03506199288
0.04859515487
0.06160784147
0.07268956938
0.08116685785
0.08704279697
0.09076296275
0.09292982294
0.09409883537
0.09468553886
0.09496107223
0.09508332471
0.09513562466
0.09515842494
0.09516998251
0.09517813181
0.09518614316
0.09519556521
0.09520669172
0.09521938955
0.09523698337
0.0952632586
0.09529077186
0.09532066961
0.09535477892
0.09537729968
0.09539119569
0.09540224855
0.0954143407
0.09543302811
0.09545898454
0.09549473571
0.09554121899
0.09556942457
0.09557502583
0.09558764949
0.09562206386
0.09571274647
0.09584103984
0.09602001641
0.09635790668
0.09728009339
0.1304655481
0.01298772338
0.0102696254
0.006850625798
0.006181241893
0.0081602081
0.01361727611
0.02280379432
0.0350211821
0.04856252978
0.06159223132
0.07269565778
0.08119535899
0.08709101759
0.09082632306
0.09300390224
0.09417997506
0.09477094749
0.09504922787
0.09517353323
0.09522766233
0.09525233158
0.09526585549
0.09527604393
0.09528613803
0.09529719113
0.09530949073
0.09532239135
0.09533401419
0.09534424923
0.09535126008
0.09535880735
0.09537862122
0.09539453315
0.09540328664
0.09541036428
0.09541795911
0.09543058452
0.09545274988
0.09548673997
0.09553172899
0.09555765427
0.09556014579
0.09556913918
0.09560187337
0.09569063041
0.09581619209
0.09599357053
0.0963250637
0.09723926341
0.1304539292
0.01298778719
0.01027221022
0.006853768565
0.006186473207
0.008167341468
0.01361145341
0.02276890747
0.03498520651
0.04853913631
0.06159073607
0.07272164702
0.08124930199
0.08716986228
0.09092445485
0.09311600087
0.09430091767
0.09489717723
0.09517874194
0.0953053369
0.0953613992
0.09538794551
0.09540338426
0.09541553504
0.09542761321
0.09544025161
0.09545370173
0.09546716493
0.09547913036
0.09548034667
0.09547859857
0.09547154955
0.09546844556
0.0954696771
0.09547042282
0.09547194128
0.09547591656
0.09548231637
0.09549583153
0.09552190234
0.0955593728
0.09558918557
0.09560405633
0.09561728857
0.09564506163
0.09571800544
0.09582636486
0.0959971007
0.09632370352
0.09723271023
0.1304666992
0.01298789238
0.01028568914
0.006867385519
0.006205982859
0.008192581312
0.01360997286
0.02275175563
0.03496925334
0.04854124723
0.06162745499
0.07280311694
0.08137561287
0.08733657586
0.09112269085
0.09333696231
0.09453580392
0.09514013646
0.09542651707
0.09555627728
0.0956147973
0.09564355689
0.09566124065
0.09567542972
0.09568903756
0.09570394679
0.09571837563
0.09573369552
0.0957459464
0.0957546195
0.09575630403
0.09574776614
0.09572784374
0.09571270227
0.095703623
0.09569757318
0.09569324175
0.09568481305
0.09568595888
0.09570362178
0.09573558747
0.09577376529
0.09580676571
0.09583419535
0.09587647085
0.09592747352
0.09598358397
0.09609729215
0.09638375537
0.09725688928
0.1304903689
0.01298929881
0.01034194132
0.006919330903
0.006282236469
0.008266652169
0.01366018946
0.02282034645
0.03503612355
0.04862583826
0.06175353273
0.07298720161
0.08161766562
0.08763142967
0.09146035526
0.09370426985
0.09492119434
0.09553614198
0.09582871684
0.09596240914
0.09602365413
0.09605469512
0.09607414588
0.0960905738
0.09610579131
0.09612233141
0.09613862663
0.09615522008
0.09616976748
0.09617979066
0.09618431631
0.0961786578
0.09616124864
0.09613540711
0.09612296306
0.09611162026
0.09610227569
0.09606439699
0.09604414114
0.09604902285
0.09607261583
0.09610511653
0.09613065159
0.09616642231
0.09620646031
0.09624362398
0.09626845045
0.0963218036
0.09654663068
0.09735696876
0.1305761191
0.01300742698
0.01056160141
0.007282975767
0.006629784147
0.008585036405
0.01396467828
0.02316174852
0.03534699366
0.04893679703
0.06212685638
0.07347169711
0.08222411188
0.08834422594
0.09225469927
0.09455335453
0.09580350163
0.09643690638
0.09673898124
0.09687742118
0.09694135136
0.09697381945
0.0969948072
0.09701210109
0.09702906583
0.09704662533
0.09706470199
0.09708267926
0.0970994363
0.09711295852
0.0971209211
0.09712147201
0.0971098819
0.09708724855
0.09707526941
0.09706054477
0.09707115695
0.09698129853
0.09694758848
0.09695532991
0.09698613381
0.09702006801
0.09706708196
0.09711021056
0.09713525723
0.09714883962
0.09715056653
0.09717168424
0.09728254951
0.09782090033
0.1310678403
0.01309574836
0.009769882199
0.007461519284
0.007260833933
0.009524063924
0.01497284052
0.02392254458
0.03580969829
0.04922681346
0.06240329563
0.07383752264
0.08272719477
0.08898799985
0.09300699519
0.09537535674
0.09666496985
0.09731812514
0.09762839304
0.09776857576
0.09783066994
0.09785959485
0.09787636505
0.0978898384
0.09790359145
0.09791889295
0.09793619997
0.0979541695
0.09797243449
0.09798872462
0.09800172204
0.09801213485
0.09802480744
0.09804644471
0.09804144625
0.0980301434
0.09804865643
0.09797082884
0.09795183218
0.09797600456
0.09802224872
0.09806762846
0.09814934924
0.09821184314
0.09824375022
0.09825285307
0.09825032606
0.09825643134
0.09823047594
0.0988662612
0.1329767292
0.01361623603
0.008962402888
0.007620382658
0.008261619169
0.01124693407
0.01724357365
0.02656317044
0.03870692232
0.05239013374
0.06593644763
0.07775613226
0.08697000265
0.09346160122
0.09763135339
0.1000918785
0.1014345333
0.1021165437
0.1024424495
0.1025918513
0.1026606439
0.1026957052
0.1027184546
0.1027379402
0.1027577797
0.1027789679
0.1028021019
0.102826314
0.1028508317
0.1028743242
0.102898349
0.1030614817
0.1035799428
0.104533681
0.10538971
0.1048229705
0.1040965308
0.1035906025
0.1032886045
0.1031580672
0.1031327948
0.1031627778
0.1032662347
0.1033387473
0.103358921
0.1033344922
0.1032848537
0.1032344447
0.1032086114
0.1045968703
0.1562594239
0.01307080871
0.007653827883
0.005338680777
0.005277319413
0.007698284395
0.01336322859
0.02257087768
0.03468596875
0.04822781652
0.06140280787
0.07273950898
0.08149111442
0.08760961826
0.09151155402
0.09379766667
0.09503569691
0.09565905075
0.09595285526
0.09608380996
0.09614023631
0.09616507431
0.09617768943
0.09618627921
0.09619409467
0.09620232516
0.09621116534
0.09622069755
0.09623068583
0.0962409142
0.0963987103
0.09702617511
0.09846740634
0.1008836126
0.1033770245
0.1020739313
0.1002393091
0.09885679055
0.09783552097
0.09717195223
0.09677469394
0.09657549752
0.09649968233
0.09648204675
0.09647464444
0.0964558953
0.09642518957
0.09639721648
0.09651061375
0.09751121542
0.1313769827
0.01226642806
0.007209623683
0.004796972644
0.004086402785
0.005679836974
0.01054847176
0.01918496638
0.03099186496
0.04438261778
0.05743171676
0.06859822404
0.07712086478
0.08299267684
0.08668028435
0.08880849349
0.08994496562
0.09050982588
0.09077256306
0.09088761743
0.09093543986
0.09095462717
0.09096236429
0.09096583795
0.09096782977
0.09096931558
0.09097072862
0.09097200021
0.09097318109
0.09097406991
0.09097517119
0.09097807103
0.09099139027
0.09102245789
0.09106266711
0.0910472527
0.09103181944
0.09101713803
0.09100374977
0.09099310115
0.0909858468
0.09098406602
0.09098687646
0.09099238486
0.09099885042
0.09100451546
0.09100806536
0.09100935451
0.09132316718
0.09123232042
0.09400081458
0.01212371399
0.007204015901
0.004818030398
0.004152692813
0.005824714091
0.01080029018
0.01953991048
0.03140815678
0.04479918139
0.05779404739
0.06887502829
0.07730625819
0.08309880834
0.08672722865
0.08881624525
0.08992933001
0.09048157804
0.09073818906
0.09085057372
0.09089741059
0.09091636265
0.09092417303
0.09092780734
0.09092996563
0.09093161558
0.09093304364
0.09093430321
0.09093530312
0.09093598038
0.09093620806
0.09093587001
0.09093484736
0.09093326252
0.09093193229
0.09093196972
0.09093287296
0.09093330346
0.0909329447
0.09093269072
0.09093322348
0.09093604325
0.09094047176
0.09094633483
0.09095300392
0.09095898317
0.09096309392
0.09096400529
0.09129370065
0.09119582734
0.0925225349
0.01213195086
0.007252930519
0.004852064068
0.0041510269
0.005785452001
0.01071346298
0.01940973707
0.03125240599
0.04464174131
0.05765534438
0.06876613539
0.07722859568
0.083047477
0.08669495041
0.0887962025
0.08991637851
0.09047233805
0.0907306918
0.09084379622
0.0908908709
0.09090985146
0.09091761363
0.09092116427
0.09092322764
0.09092475564
0.09092605709
0.09092717017
0.09092802485
0.09092849573
0.0909285191
0.09092786549
0.0909265174
0.09092506785
0.09092492592
0.09092591964
0.09092771805
0.09092892325
0.09092919318
0.09092939708
0.09092945189
0.09092940992
0.09093131381
0.09093655567
0.09094440003
0.09095246381
0.09095868153
0.09101789744
0.09158866374
0.0914089112
0.09265951215
0.01216933035
0.007336642032
0.00486033007
0.004176241713
0.005847330139
0.01082814676
0.01957060767
0.03143674873
0.0448210443
0.05780730476
0.06888048744
0.07730584323
0.08309448525
0.08672051196
0.0888081525
0.08992048782
0.09047230326
0.09072863227
0.09084082588
0.09088753096
0.09090639027
0.09091414262
0.09091773512
0.09091985958
0.09092146066
0.09092280776
0.09092391307
0.09092469358
0.09092501519
0.09092476391
0.09092389665
0.09092235962
0.09092128695
0.09092159241
0.09092330451
0.09092607088
0.090928474
0.09093030329
0.09093191066
0.09093269438
0.09093239541
0.09093186674
0.09093410215
0.09094057904
0.09094923647
0.09101633277
0.09110310408
0.0916280202
0.09143526846
0.09267457067
0.01216935158
0.007335867177
0.004860197307
0.004178246492
0.005846606988
0.0108727971
0.0196325523
0.03150940501
0.04489450994
0.05787241141
0.06893159728
0.07734162868
0.08311687865
0.08673290619
0.08881393902
0.08992232521
0.09047197374
0.09072720374
0.09083888274
0.09088537217
0.0909041653
0.09091192723
0.09091557366
0.09091777761
0.09091947223
0.09092090331
0.0909220589
0.09092284446
0.09092176417
0.09092215239
0.09093406845
0.09093659068
0.09093085457
0.09092808742
0.09092819976
0.09093065038
0.09093329427
0.09093649102
0.09093994902
0.09094212895
0.0909418372
0.09094001301
0.09093913316
0.09094884937
0.09098106743
0.09109399841
0.09115538808
0.09165423436
0.09145411444
0.0926896373
0.01216930756
0.007335640931
0.004860186988
0.00417815866
0.005847422006
0.01091781767
0.01970884625
0.03159732486
0.04498178783
0.05794840274
0.06899061193
0.07738295553
0.08314308802
0.08674791565
0.08882155994
0.08992553581
0.09047278094
0.09072681357
0.09083796083
0.09088426605
0.09090305298
0.09091090565
0.09091470184
0.09091709199
0.09091899403
0.09092063367
0.09092197708
0.09092301705
0.09092934719
0.09093210217
0.09095261874
0.09095683083
0.09094515298
0.09093878264
0.09093744988
0.09093980988
0.09094356997
0.09094713924
0.09095056123
0.09095211838
0.09095067612
0.09094758934
0.09094498777
0.09096369167
0.09101671164
0.09111874165
0.09117250137
0.0916621769