/*--------------------------------*- C++ -*----------------------------------*\
| =========                 |                                                 |
| \\      /  F ield         | OpenFOAM: The Open Source CFD Toolbox           |
|  \\    /   O peration     | Version:  2.2.1                                 |
|   \\  /    A nd           | Web:      www.OpenFOAM.org                      |
|    \\/     M anipulation  |                                                 |
\*---------------------------------------------------------------------------*/
FoamFile
{
    version     2.0;
    format      ascii;
    class       volScalarField;
    location    "1";
    object      nut;
}
// * * * * * * * * * * * * * * * * * * * * * * * * * * * * * * * * * * * * * //

dimensions      [0 2 -1 0 0 0 0];

internalField   nonuniform List<scalar> 
86889
(
0.000142188119
0.0001455013122
0.0001929583872
0.0003219025932
0.0006558186967
0.00141965506
0.002933262214
0.005561901323
0.009584358495
0.01496801879
0.02125870102
0.02764474441
0.033236996
0.03746104478
0.04023654107
0.04184781087
0.04268832939
0.04308472107
0.04325092532
0.04330662851
0.04331185824
0.04329379795
0.04326367425
0.04322630981
0.04318167148
0.04313299211
0.04308281459
0.0430319477
0.04298361773
0.04293326524
0.04252209337
0.04122638867
0.03898487453
0.03694968694
0.03730074202
0.03824906128
0.03923592854
0.04023174081
0.04113225226
0.04189940502
0.04251840636
0.04284696653
0.04304998339
0.04317681403
0.04324719944
0.04328216219
0.04327741835
0.04329338899
0.04047928246
0.01890457822
0.0001394805892
0.0001705089809
0.0001863193847
0.0002646673661
0.0005240273605
0.001213482187
0.00270278006
0.005422426633
0.009761314246
0.0158951737
0.02358190827
0.03201765083
0.03998308242
0.04640529149
0.05084504365
0.0535181939
0.05494834736
0.05563932751
0.05594193203
0.0560586014
0.05609194045
0.0560864372
0.05606042205
0.05602168418
0.05597392366
0.05591574569
0.05585564191
0.05579069245
0.05573754538
0.05569048436
0.05565367342
0.0556005751
0.05549593673
0.05551596642
0.05552297212
0.05558903298
0.05617477631
0.05691524785
0.05760458342
0.0581870549
0.05866948602
0.0588544921
0.05890280559
0.05887345221
0.058782623
0.0586621299
0.05851588395
0.05851128065
0.05577536497
0.02405888704
0.0001389042974
0.0001940756036
0.000180520981
0.0002302112719
0.000451918237
0.00111852984
0.002646100691
0.005459891333
0.009936795474
0.01626515544
0.02422776641
0.03303793824
0.04144968617
0.04829033722
0.05303476622
0.05588573418
0.05739947608
0.05811714592
0.05841513899
0.05851047471
0.05851292722
0.05847364034
0.05841426918
0.05834436267
0.05826799728
0.0581880673
0.05810961989
0.05803965875
0.05798433958
0.0579572489
0.05796732715
0.05804280137
0.05815240625
0.0582527912
0.05830525073
0.05840306771
0.05904331524
0.05980055415
0.06048692917
0.06106069721
0.06153332541
0.06180914426
0.06190362571
0.0618853884
0.06175981352
0.06158946133
0.06134481288
0.06104652773
0.05869883611
0.02457351425
0.0001387654128
0.0001873886212
0.0001689542163
0.0002153442408
0.0004339390143
0.001101938192
0.002647364756
0.005530900632
0.01014990063
0.01674154682
0.02516323435
0.03466728336
0.04394154837
0.05164933282
0.05709333657
0.0604105076
0.06219014426
0.0630423541
0.06340302351
0.06352608548
0.06354093479
0.06350786206
0.06345216023
0.06338611616
0.06331363827
0.06323866918
0.06316522016
0.06310000664
0.06305265712
0.06303508481
0.06306648513
0.06316061743
0.06329015551
0.06335913768
0.06341000826
0.06352111666
0.06382675657
0.06417733183
0.06449256535
0.06475424492
0.06496785059
0.06513519588
0.0651308917
0.06495032437
0.0646474954
0.06433898169
0.06390892552
0.06323968422
0.0599445063
0.02459459527
0.0001387638969
0.0001857016816
0.0001671679662
0.0002122526474
0.0004311106619
0.001103865318
0.002660001851
0.005577907759
0.01026431414
0.0169777884
0.02560779673
0.03542476503
0.04509986589
0.05322741511
0.05902201763
0.06257834839
0.06450015351
0.06543028605
0.06583351284
0.06598201892
0.06601495289
0.06599720528
0.06595561897
0.06590212063
0.06583998493
0.06577405274
0.06570836474
0.06565068926
0.06561117773
0.06560491968
0.06564935159
0.0657413733
0.06579429728
0.06581134296
0.06582431526
0.06586686407
0.0659681947
0.06608671329
0.06619373223
0.06628368759
0.06635728637
0.06641159077
0.06640778025
0.06619720353
0.06580008599
0.06536695855
0.06475300642
0.06389389274
0.06031258206
0.02460229756
0.0001387623677
0.000185298948
0.0001666488452
0.0002112905903
0.0004303784236
0.001108415725
0.002674808884
0.005613104981
0.01033707631
0.01711651393
0.02585650674
0.0358369648
0.04572234327
0.05407071315
0.0600557803
0.06374370827
0.06574452203
0.06671956359
0.06714939186
0.06731594555
0.06736341936
0.06735842099
0.06732946906
0.06728771958
0.06723623173
0.06717923813
0.0671238117
0.06706874639
0.06705700367
0.06706066976
0.06709464235
0.06710452613
0.06707111989
0.06703481545
0.06700442396
0.06699445492
0.06700722316
0.06702775123
0.06704781918
0.06706796383
0.06712213309
0.06719431252
0.06718499719
0.06704788176
0.06658279196
0.06598022544
0.06519105763
0.06416488544
0.06039993164
0.02460702991
0.0001387617891
0.0001852225101
0.0001665265505
0.0002110306806
0.0004299155848
0.001110584931
0.002686862579
0.005636940339
0.01038025034
0.01719129476
0.02598150091
0.03603560322
0.04601512672
0.05446196763
0.06053297189
0.06428151553
0.0663196771
0.06731707896
0.06776127306
0.06793904819
0.06799703879
0.06800279625
0.06798415437
0.06795212018
0.0679123418
0.06786437113
0.06781106944
0.06775905403
0.06771641413
0.06769046682
0.06766860947
0.06757592384
0.0674694898
0.06738274847
0.06731643217
0.06727503705
0.06725285824
0.0672378663
0.06722520789
0.06721865744
0.06728772673
0.06740536793
0.0674201972
0.06729191301
0.06681553814
0.06617736703
0.0653774317
0.06433791196
0.06053419723
0.02461562576
0.0001387613633
0.0001852070754
0.0001664997668
0.0002109748862
0.000429835154
0.00111060125
0.002693291548
0.005656040732
0.01041239296
0.01724337362
0.02606373276
0.03616085188
0.04619428829
0.05469684328
0.06081581435
0.06459912978
0.06665871123
0.06766956049
0.06812419541
0.06831153901
0.06837922994
0.06839516416
0.06838812491
0.06836796981
0.06833725928
0.06829671302
0.06824662167
0.0681783047
0.06808515555
0.06799137593
0.06787498661
0.06771333394
0.0675680091
0.06745288819
0.06736685793
0.06730640651
0.06726468101
0.06723603936
0.06721796964
0.06721099739
0.06728168796
0.06740084323
0.06743974286
0.06731440451
0.0668149969
0.06613000526
0.06526221682
0.06414441117
0.06028173247
0.02461715867
0.0001387609486
0.0001852046687
0.0001664957785
0.0002109725597
0.0004298671517
0.001110785258
0.002693893821
0.005664194186
0.0104361243
0.01728030757
0.02611996836
0.03624458697
0.04631216249
0.05484985027
0.06099915332
0.06480576044
0.06688128832
0.06790412899
0.06836899292
0.06856567531
0.06864033074
0.06865949636
0.06864963727
0.06861806566
0.06857346382
0.06852432063
0.06847251674
0.06838592329
0.06825442696
0.06810383994
0.06793342482
0.06774330614
0.06758213669
0.067457156
0.06735797058
0.0672864463
0.06723599069
0.06720315106
0.06718670933
0.06718762145
0.06726878529
0.0673971889
0.06742433929
0.06733598212
0.06692365305
0.0662832374
0.06546364435
0.0643894048
0.06054214116
0.02463238508
0.000138760539
0.0001852035724
0.0001664952008
0.0002109776803
0.0004299086628
0.001110970427
0.002694461527
0.005665496335
0.01044876207
0.01730022778
0.02615010428
0.03628868565
0.04637299102
0.05492748033
0.06109156978
0.0649116384
0.06699787329
0.06802915802
0.06849620263
0.06869049171
0.06875773185
0.06876297472
0.06873290563
0.06867295742
0.068594344
0.06851790603
0.06844394696
0.06835453844
0.06822958318
0.06807997916
0.06791108893
0.06772127603
0.06756195925
0.06743869063
0.06733596056
0.06725711003
0.06719109904
0.06714646718
0.06712648064
0.06713202016
0.0672154878
0.06729584578
0.0672963871
0.06720181784
0.06674898379
0.06604102386
0.06509174072
0.06387849282
0.05997274469
0.02462983041
0.0001387601409
0.000185203291
0.0001664956281
0.0002109842397
0.0004299506154
0.001111146819
0.002694991307
0.005666712497
0.01045134225
0.01730500657
0.02615758557
0.03629907253
0.04638580997
0.05494180046
0.06110735263
0.06493171975
0.06702148492
0.06805156528
0.06851627894
0.06870382581
0.06875395883
0.0687300458
0.0686710461
0.06858878792
0.06848367557
0.06836938866
0.06826720038
0.06816936987
0.06805582445
0.06793071858
0.06779044924
0.06762845415
0.06746713219
0.06731662822
0.06719797437
0.06712716209
0.06710405542
0.06708348185
0.06706009141
0.06706581507
0.06710871245
0.06713117864
0.0671212657
0.0670262287
0.06666183004
0.0660646346
0.06527102879
0.06422779921
0.06042969629
0.02465441373
0.0001387597679
0.0001852031973
0.0001664962274
0.0002109904944
0.000429989141
0.001111307507
0.002695474165
0.005667835908
0.01045372868
0.01730946102
0.02616466765
0.03630894699
0.04639806676
0.05495553704
0.0611220709
0.06494735861
0.0670381631
0.06807010758
0.06853021626
0.06870069149
0.06872665761
0.06867627081
0.0685875397
0.06848052278
0.06834773049
0.06818966269
0.06804964086
0.0679197516
0.06779427091
0.06767279235
0.06753957796
0.06740119525
0.06721092541
0.06693875993
0.0666541049
0.06648855477
0.06628977336
0.06618378947
0.06610606412
0.066085904
0.06613404535
0.06624911018
0.06636836451
0.06638653109
0.06607795083
0.06551736773
0.06463421283
0.06347537966
0.05962281857
0.02464484755
0.0001387594295
0.0001852032167
0.0001664968688
0.0002109962106
0.0004300236189
0.001111450557
0.002695904573
0.00566884355
0.01045588124
0.01731351027
0.02617121056
0.03631810656
0.04640950449
0.05496837302
0.06113557135
0.06496148327
0.06705375361
0.06808216468
0.06852798912
0.06867687516
0.06868169108
0.06861286577
0.068492695
0.06834254468
0.06818611121
0.06801446785
0.06782210733
0.06765432237
0.06748617261
0.0673202905
0.06716730675
0.0669897299
0.06670718548
0.06623699132
0.06551038695
0.0657407
0.06596884263
0.06618661047
0.06639042117
0.06643219148
0.06643627805
0.06639999259
0.06629591833
0.06607531151
0.06558059099
0.06505577874
0.06439890789
0.06351920663
0.05991591375
0.0246698476
0.0001387591371
0.0001852034514
0.0001664976831
0.0002110014299
0.0004300535901
0.001111573831
0.002696275035
0.005669713623
0.01045774625
0.01731704539
0.02617703697
0.03632623453
0.04641967213
0.05497984744
0.06114774811
0.06497451148
0.06706838995
0.06808790113
0.06851208887
0.06863664785
0.06862046968
0.06852635611
0.06837871308
0.06820398498
0.06802795633
0.06785437734
0.06764424399
0.06745074306
0.06724986087
0.06703826642
0.06683052117
0.06653488122
0.06594189147
0.06498382681
0.06379699995
0.06230714763
0.06086557514
0.05882594567
0.05840282411
0.05906656564
0.05997214812
0.06096645331
0.06205480682
0.06305076384
0.06354255075
0.06358696034
0.06326311364
0.06255997663
0.05912063936
0.02465781786
0.0001387588991
0.0001852036735
0.00016649837
0.0002110057133
0.0004300780981
0.001111674349
0.002696576805
0.005670423845
0.0104592687
0.01731994693
0.02618190516
0.03633298875
0.04642812601
0.05498944282
0.06115804033
0.06498572654
0.06708120464
0.06809443325
0.06850404041
0.06860578506
0.06855431139
0.06842471416
0.06826259251
0.06808930473
0.06789293747
0.06766647483
0.06741435462
0.06726835628
0.06697613757
0.06686756959
0.06651878886
0.06623392589
0.06542693575
0.06411726495
0.06313297568
0.06133613326
0.04860821082
0.02890571101
0.02822627152
0.02933886839
0.03114905866
0.03380533303
0.03740582461
0.04204243409
0.04736218505
0.05248918334
0.05657748984
0.05895748859
0.05727840223
0.02460952228
0.0001387587228
0.0001852040007
0.0001664990625
0.0002110090647
0.0004300963866
0.001111748955
0.00269680039
0.00567095315
0.01046039235
0.01732210384
0.02618559327
0.03633805429
0.04643445528
0.05499666044
0.06116587006
0.06499438258
0.0670912595
0.06810390521
0.06851117274
0.06859898213
0.06850960374
0.06834501974
0.06817747205
0.06798712078
0.06772788142
0.06735560069
0.06674023558
0.06712391571
0.06653447785
0.06705704259
0.06686057727
0.06646180107
0.06577793139
0.06476206047
0.06355425386
0.06140520524
0.05948548908
0.05656893384
0.05493983558
0.05411004205
0.0543107663
0.05518076627
0.05620956608
0.05736107126
0.05857939699
0.05963718977
0.06042583966
0.06060538434
0.05806904638
0.02466207138
0.0001387586142
0.0001852042132
0.0001664994802
0.0002110110893
0.0004301073537
0.001111793699
0.002696934893
0.005671273332
0.01046106979
0.01732340866
0.02618784954
0.03634114469
0.0464383251
0.05500109819
0.06117074053
0.06499982663
0.06709766763
0.06811149073
0.06852060475
0.06860495053
0.06850397759
0.06832572902
0.06821012407
0.06795305216
0.06738619404
0.06658161771
0.06572484218
0.06525621721
0.06336923784
0.0594157466
0.05832133814
0.05576801175
0.05331821524
0.05404927992
0.05549452262
0.05676136973
0.0585564596
0.05996721027
0.05877104902
0.05743904969
0.05709932588
0.05744745887
0.05811386925
0.05891612473
0.05944073762
0.06002483608
0.06054588568
0.060684748
0.05847191352
0.02469649752
0.0001387585766
0.0001852044032
0.0001664997312
0.0002110118797
0.0004301111669
0.001111808759
0.002696979384
0.005671377933
0.01046129065
0.01732383387
0.02618858585
0.03634215061
0.04643958589
0.05500254918
0.06117234834
0.06500164266
0.06709985479
0.06811410284
0.06852404885
0.068609546
0.06851096181
0.06833810747
0.06826088406
0.06797198845
0.06717530514
0.06634284116
0.06555154886
0.06436603251
0.06101621937
0.03303018322
0.03160574315
0.03020225238
0.02936917437
0.03113907541
0.03397848736
0.03769941527
0.04215915884
0.04742430117
0.05245653302
0.05514969182
0.0567435698
0.05790817607
0.05898892434
0.05985391557
0.06020381789
0.06039899003
0.06046812917
0.06027023077
0.05779592203
0.02467798454
0.0001387586109
0.0001852042655
0.0001664994695
0.0002110109914
0.0004301068763
0.001111791535
0.002696927814
0.005671255704
0.01046103308
0.01732333926
0.02618772898
0.03634098108
0.04643812526
0.05500087886
0.06117051539
0.06499959759
0.06709742638
0.06811122686
0.06852030398
0.06860460146
0.06850356686
0.06832523593
0.06820796106
0.06795226912
0.06738625002
0.06658244846
0.06572224458
0.06525401517
0.06229701943
0.05453167939
0.04483706269
0.03450259046
0.02816577359
0.0297654809
0.03177258391
0.03123441288
0.03492279716
0.0385894291
0.04278290199
0.04730177205
0.05097200291
0.05397631543
0.05668049539
0.05895627368
0.06037662693
0.06113189833
0.06133794201
0.06113607403
0.05856223591
0.02468321249
0.0001387587175
0.0001852039271
0.0001664989107
0.000211008852
0.0004300953948
0.001111743868
0.002696783262
0.005670910143
0.01046030232
0.0173219359
0.02618531052
0.03633767047
0.04643398945
0.05499615332
0.06116535437
0.06499386158
0.06709071272
0.06810330645
0.06851048744
0.06859817314
0.06850862685
0.0683437947
0.06817548984
0.06798709336
0.06773158165
0.0673606437
0.06674076181
0.06710881577
0.06612272299
0.0560933902
0.03956609269
0.02718352316
0.01717006214
0.01746847591
0.01812094859
0.01752485682
0.01892352625
0.02074276956
0.02328177927
0.02689954508
0.03152221562
0.03724858004
0.04357108773
0.0497314525
0.05491777486
0.05839598714
0.06008808537
0.06039895057
0.05757271302
0.02460680379
0.00013875889
0.0001852035717
0.0001664981809
0.0002110053293
0.0004300761255
0.001111665556
0.002696548992
0.005670355716
0.01045912645
0.01731968417
0.02618147206
0.03633239569
0.04642740449
0.0549886589
0.06115724753
0.06498493035
0.06708037377
0.06809352642
0.06850300601
0.06860457044
0.06855282611
0.06842287223
0.06826038096
0.06808947526
0.06790022407
0.06767716356
0.06741398137
0.06725171112
0.06367087289
0.05136529162
0.03581994876
0.02412535403
0.01318179141
0.09637661368
0.0897605582
0.06208026785
0.05527286613
0.03892119856
0.03410351805
0.03344682887
0.03423869168
0.03641036571
0.03992279737
0.04453528977
0.04962146184
0.05425467174
0.0576292531
0.05941881605
0.05733026181
0.02459042774
0.0001387591241
0.0001852034504
0.0001664975601
0.0002110010107
0.0004300510085
0.001111562154
0.00269623806
0.005669622925
0.010457556
0.01731669402
0.0261764678
0.03632544898
0.04641871392
0.05497880816
0.06114670265
0.06497346867
0.06706731004
0.06808673244
0.06851076051
0.06863508527
0.06861857087
0.06852407508
0.06837601946
0.06820079296
0.06801344008
0.06784790875
0.06763214617
0.06742968699
0.06497686471
0.05460680544
0.03901497078
0.0270684261
0.01708126791
0.01738259053
0.01805125816
0.01905020385
0.02122284106
0.02480793576
0.02941930116
0.03480807545
0.04109984152
0.04755390103
0.05351716676
0.05825396949
0.06126606859
0.06265624483
0.06280577836
0.06222508157
0.05881681205
0.02463101643
0.0001387594135
0.0001852031764
0.0001664966741
0.0002109956718
0.0004300204963
0.001111436423
0.002695859602
0.005668732915
0.01045564839
0.01731307987
0.02617052357
0.03631714969
0.04640833231
0.05496710152
0.0611342962
0.06496022183
0.06705245341
0.06808076215
0.06852640171
0.06867501812
0.06867950719
0.06861031022
0.06848964235
0.06832325015
0.06812895372
0.06796655977
0.06778059089
0.0676156892
0.06633486776
0.0600040724
0.047568193
0.03569407735
0.02891399212
0.03084680055
0.03354000961
0.03670893003
0.04107174704
0.04584611002
0.05065532172
0.05497299731
0.05868822371
0.06163675348
0.06376821251
0.06511839257
0.06567132036
0.06533424772
0.06433304615
0.06316793936
0.05942788228
0.02464730352
0.0001387597488
0.0001852031667
0.0001664960031
0.0002109898783
0.0004299856168
0.001111291392
0.00269542257
0.005667708363
0.01045345899
0.01730896196
0.02616388109
0.03630784417
0.04639671168
0.05495406684
0.06112060058
0.06494591381
0.06703668493
0.06806851501
0.06852843907
0.06869864791
0.06872427249
0.06867348194
0.06858058762
0.068444634
0.06827497701
0.06812985033
0.06800164248
0.06787987799
0.0676539589
0.0652951489
0.0585501257
0.04937863003
0.04354840013
0.04610028256
0.04899263387
0.05197122206
0.05516392647
0.05820989343
0.06070111871
0.06272995251
0.06428131444
0.06539510147
0.06610616171
0.06643520187
0.06623246747
0.06542175858
0.06429229451
0.06311453039
0.05933887322
0.02463769475
0.0001387601185
0.0001852030781
0.000166495218
0.0002109834492
0.0004299467556
0.001111129319
0.002694934816
0.005666571946
0.01045104436
0.01730445559
0.02615672309
0.03629785391
0.0463843076
0.0549401677
0.06110572287
0.06493013398
0.06701988013
0.06804984251
0.06851436565
0.06870165373
0.06875147698
0.06872717193
0.06866406623
0.06856844769
0.06844990607
0.06834332327
0.0682454012
0.06815077555
0.06803675382
0.06750509481
0.06539490342
0.06138968998
0.05826328946
0.05968563702
0.06109407876
0.06237477858
0.0635470969
0.06453331208
0.06531510465
0.06593320062
0.06641718727
0.06673501561
0.06689841725
0.06685119383
0.06634969179
0.06557077516
0.06463788022
0.06360402596
0.05986686817
0.02464392065
0.0001387605132
0.0001852033188
0.000166494811
0.0002109769916
0.0004299048788
0.001110952291
0.002694401783
0.005665345969
0.01044844195
0.01729963615
0.02614918327
0.03628737731
0.04637137527
0.05492572324
0.06108981691
0.0649099562
0.06699624394
0.06802744188
0.06849424226
0.06868824096
0.06875515886
0.06876002883
0.06872953854
0.0686690895
0.06858990336
0.06851293201
0.06843860106
0.06834860887
0.06822286226
0.0680640247
0.06768101907
0.06684848185
0.0661383978
0.06632993618
0.06649754196
0.0666441815
0.06676238599
0.06686315454
0.06695189991
0.06703389026
0.06716571422
0.06726831922
0.06725988664
0.06709176304
0.06650352216
0.06574286574
0.06482801677
0.06372909337
0.05988152717
0.02463281683
0.0001387609194
0.0001852040847
0.0001664951711
0.0002109717242
0.0004298631707
0.001110766724
0.002693833343
0.005664046699
0.01043579674
0.01727969805
0.02611902247
0.03624322798
0.04631047644
0.05484801867
0.06099735825
0.06480413567
0.06687981917
0.06790265705
0.06836727455
0.06856364525
0.068637868
0.06865661155
0.06864635111
0.06861437509
0.06856933678
0.06851974408
0.06846759507
0.06838126013
0.06824886298
0.06809715801
0.06792412092
0.06772624474
0.06755176399
0.06741751518
0.06731532661
0.06724608797
0.06720234557
0.06717909818
0.0671729141
0.06718224224
0.06726814869
0.06739591169
0.06740983004
0.06725834954
0.06671728421
0.06600136152
0.06512484596
0.06402129479
0.06018069904
0.02462986189
0.0001387613301
0.0001852063292
0.0001664991236
0.0002109743502
0.0004298327397
0.001110586051
0.002693238065
0.005655888679
0.01041204645
0.01724272988
0.02606274204
0.03615944302
0.04619255107
0.05469496807
0.06081402534
0.06459758702
0.06665749895
0.06766871675
0.06812338621
0.06831079707
0.06837858578
0.06839474304
0.068387567
0.06836748764
0.06833655693
0.06829634946
0.06824719467
0.06818021801
0.06808748846
0.06799133308
0.06787078653
0.06770689499
0.06756035588
0.0674452598
0.06736082697
0.06730287615
0.06726300202
0.06723521871
0.06721750246
0.06721104473
0.06728118733
0.06739777106
0.0674271521
0.06726099203
0.06671049672
0.06600640057
0.06514956695
0.06404152081
0.06019351817
0.02462108364
0.0001387617535
0.0001852214954
0.0001665257458
0.0002110299571
0.0004299127416
0.001110570681
0.002686810464
0.005636793254
0.01037993476
0.0171907111
0.02598059456
0.0360342561
0.04601341525
0.05446009671
0.06053117814
0.06427988776
0.06631805256
0.06731532661
0.0677595474
0.06793748487
0.06799542019
0.06800105631
0.06798268158
0.06795067478
0.0679095244
0.06786046614
0.06780711832
0.06775791739
0.06771617288
0.06769142336
0.06766692717
0.06757132562
0.06746298858
0.06737455486
0.06730618662
0.06726278653
0.06723992441
0.06722717923
0.06721864254
0.06721640063
0.06728852107
0.06740669276
0.06743709479
0.06726508112
0.06671701449
0.06603283963
0.06520485913
0.06414358127
0.06033206728
0.02461724637
0.0001387623283
0.0001852972903
0.0001666475674
0.0002112900291
0.0004303784616
0.001108407866
0.002674761337
0.005612967999
0.01033675603
0.0171158837
0.02585550445
0.0358355311
0.04572056438
0.05406876306
0.06005377535
0.06374173563
0.0657424757
0.06671727517
0.06714681988
0.06731315181
0.06736029515
0.06735507937
0.06732543637
0.0672818216
0.06723100663
0.0671748005
0.06711695321
0.06706468512
0.0670517555
0.06705717332
0.06709228941
0.06710008897
0.06706539018
0.06702852642
0.06699806287
0.06698847298
0.06700184369
0.06702318684
0.06704390494
0.06706486354
0.06711974993
0.06719204153
0.06720018613
0.06703155473
0.06652970786
0.06590808744
0.0651168203
0.06409509687
0.0603300872
0.02461148018
0.0001387638635
0.0001857024681
0.0001671686004
0.0002122552216
0.0004311170913
0.001103869734
0.002660004509
0.00557785502
0.01026408328
0.01697725163
0.02560693259
0.0354235052
0.04509822649
0.05322544566
0.05901968034
0.06257576954
0.06449744102
0.06542734204
0.06583048245
0.06597883641
0.0660111813
0.06599168656
0.06594919543
0.0658954405
0.06583058726
0.06576706605
0.06569796434
0.0656433798
0.06560527106
0.06560043494
0.0656433217
0.06573355899
0.06578736177
0.06580407784
0.06581668018
0.06585895844
0.06595987261
0.06607896087
0.06618782685
0.06628049671
0.06635645979
0.06641117777
0.06638772644
0.06614652092
0.06572840223
0.06528531746
0.0646858697
0.0638143683
0.06021819664
0.02460655958
0.0001387775357
0.0001873979638
0.0001690367196
0.0002155149911
0.0004342455574
0.001102413314
0.002647988905
0.00553170117
0.01015082118
0.01674242155
0.02516374
0.03466714572
0.04394058605
0.05164726698
0.05709033937
0.06040704056
0.06218662194
0.0630389505
0.06339983458
0.06352373283
0.0635391347
0.06350738324
0.06345095359
0.06338667441
0.06331158642
0.06323668689
0.06316025111
0.063093747
0.06304951474
0.0630327647
0.06306566943
0.06315655213
0.0632849802
0.06335313867
0.06340390887
0.06351516291
0.06382102267
0.06417219942
0.06448849088
0.06475156259
0.06496646617
0.06513201594
0.06511334725
0.06491986044
0.06460571714
0.06428957451
0.06388897933
0.06321944466
0.05988551777
0.02460056228
0.0001389160399
0.0001940960121
0.0001805788644
0.0002302847282
0.0004519949744
0.001118655555
0.002646169194
0.005459837113
0.009936547293
0.01626446708
0.02422655631
0.03303637809
0.04144760887
0.04828721694
0.05303039321
0.05588055649
0.05739384794
0.05811167744
0.05841029855
0.05850597391
0.05850991367
0.05847066291
0.05841195998
0.05834195715
0.05826538318
0.05818610181
0.05810760092
0.05803585736
0.0579798593
0.05795175594
0.05795894467
0.05803085153
0.0581404534
0.05824329641
0.05829731682
0.05839603404
0.0590369201
0.05979489546
0.06048241801
0.06105785816
0.06153195249
0.06179651214
0.06188136154
0.06185310398
0.06171825236
0.06155484806
0.06130486258
0.06100313906
0.05862492024
0.02457718606
0.0001394806806
0.0001705109901
0.0001863049601
0.0002644522729
0.0005236325513
0.001213096914
0.002702478826
0.005422106057
0.009760891977
0.01589453124
0.02358108661
0.03201660639
0.0399817303
0.04640378896
0.05084350185
0.05351663489
0.05494672888
0.05563758894
0.05594002138
0.05605647514
0.05608970327
0.05608421881
0.05605882294
0.05602052846
0.05597181665
0.05591342706
0.05585128839
0.05578657331
0.05572840697
0.05568216855
0.05564351741
0.05559086836
0.05548377048
0.05550588592
0.05551484307
0.05558242334
0.05616921013
0.05691036388
0.05760067227
0.0581843707
0.05866839117
0.05884688122
0.05888728831
0.05885008632
0.05875087898
0.05862272953
0.05845628171
0.05845237849
0.05573004909
0.02406334963
0.0001421880616
0.0001454999376
0.0001929485314
0.0003219030336
0.0006558530738
0.001419646962
0.002933090079
0.005561464494
0.00958361091
0.01496682875
0.02125704779
0.02764273374
0.03323478955
0.03745868628
0.04023379499
0.0418448288
0.04268512638
0.04308130859
0.04324719858
0.04330250532
0.04330731006
0.04328867209
0.04325816398
0.04322043474
0.04317806691
0.04313122667
0.04308229189
0.04303316085
0.04298567696
0.04293227373
0.0425215017
0.04122718542
0.03898070153
0.03694547203
0.03729203652
0.03824045869
0.03922773926
0.04022434654
0.04112610306
0.04189501883
0.04251233738
0.04283874207
0.04303809455
0.04316177478
0.04323035195
0.04326502022
0.04326151858
0.0432813581
0.04045174974
0.01890759596
0.0001393235514
0.0001148015595
0.0001159231775
0.000174491509
0.0004138850924
0.001110147458
0.002663127059
0.00553064931
0.01014871681
0.0167811399
0.02529742266
0.0349421369
0.04438645362
0.05227123377
0.05787813201
0.06132237172
0.06319041368
0.06410344216
0.06451044252
0.06467468796
0.06473090236
0.06474127171
0.06473228077
0.06471445378
0.06469136526
0.06466491364
0.06463589424
0.06460418361
0.06456558973
0.06377146227
0.06078023074
0.05491975196
0.04747972871
0.04158128142
0.04254769806
0.04520627802
0.0480049797
0.05096178978
0.05383731821
0.05648063166
0.05874124451
0.06053688284
0.06187076228
0.06280668002
0.063433999
0.06383554383
0.06403864308
0.0637818899
0.05967207543
0.02421854128
0.0001349754606
0.0001102958523
9.825879838e-05
0.0001180819808
0.0002663448577
0.000815197669
0.002223184769
0.005030606841
0.009783802633
0.01696069163
0.02681019459
0.03903296866
0.0524287562
0.06501421097
0.07495660699
0.08157515285
0.08536637696
0.08728850926
0.08817300209
0.08854897888
0.08869780117
0.08875230551
0.08876951831
0.08877249499
0.0887701745
0.08876466372
0.08875838092
0.0887512086
0.08874511743
0.08873577129
0.08870878967
0.08858077574
0.08824754498
0.08775423283
0.08784959627
0.08796487955
0.08809661767
0.08823436604
0.08836817074
0.08848828159
0.08857273102
0.08862313198
0.08864955804
0.08866044895
0.08866233711
0.08866019284
0.08865254631
0.08636750191
0.08687189207
0.06215417458
0.0001340167714
0.0001118492357
0.0001000548696
0.0001218841238
0.0002774516987
0.000844285562
0.002283178918
0.005133584458
0.009940117392
0.01717852246
0.02709302928
0.03937372523
0.05280383689
0.06538794143
0.07529891017
0.08187568668
0.08563155414
0.08752998252
0.08840022911
0.08876768756
0.08891101887
0.08896149683
0.08897560919
0.08897604636
0.08897140829
0.08896492063
0.08895788213
0.08895144614
0.08894645417
0.08894458234
0.08894768779
0.08895825749
0.08897698051
0.08899789179
0.08901038467
0.08901804483
0.08902470517
0.08903136958
0.08903876264
0.08904225692
0.0890306426
0.08901331405
0.08899478991
0.08897733081
0.08896244059
0.08894982195
0.08894135527
0.08645664549
0.08704823686
0.07264346683
0.000134071007
0.0001121356138
0.0001000733574
0.0001214167649
0.0002740756072
0.0008339324156
0.002261427421
0.005096595149
0.009884613143
0.0171022495
0.02699682456
0.03926567951
0.05270219527
0.06531553555
0.07526997149
0.0818888013
0.08567545005
0.08759269282
0.08847348913
0.08884694972
0.08899416031
0.08904760169
0.08906444038
0.08906753709
0.08906569106
0.08906190141
0.08905743963
0.08905317032
0.08905016511
0.0890493811
0.08905350527
0.0890640191
0.08907813739
0.08908667466
0.08909204431
0.08909594781
0.08909917206
0.08910188141
0.08910462838
0.08910732627
0.08910938268
0.08910242568
0.08908456109
0.08906071021
0.08903531521
0.08901175398
0.08855550227
0.08443729344
0.08548567198
0.07198501874
0.0001343437105
0.0001128504408
0.000100306745
0.0001230025022
0.0002788385749
0.0008475422527
0.00229051805
0.005147520678
0.009962449403
0.0172098409
0.0271328379
0.03942123954
0.0528597
0.06545481223
0.07537923222
0.08196912294
0.08573527214
0.08764076225
0.08851585748
0.08888703246
0.08903366594
0.08908734244
0.08910477151
0.08910866018
0.08910762652
0.08910480809
0.0891014615
0.08909839534
0.08909661804
0.08909740938
0.08910209252
0.08911246067
0.08912219661
0.08912793561
0.08913190044
0.08913527819
0.08913813221
0.08914048178
0.08914242063
0.08914375562
0.08914402291
0.0891427418
0.08913123284
0.0891080823
0.08907888143
0.08859666864
0.08792745675
0.0841938697
0.0853141724
0.07193271036
0.0001343435487
0.0001128320772
0.0001002898397
0.0001231353865
0.0002787903016
0.0008535367493
0.00230281201
0.005168872743
0.00999536669
0.01725615138
0.02719260756
0.03949110104
0.05293211295
0.06552059983
0.07543255662
0.08200982858
0.08576679932
0.08766702817
0.08853971854
0.08891018375
0.08905701341
0.08911135872
0.08912969185
0.08913459777
0.08913458861
0.08913278685
0.08913040208
0.0891282102
0.08913720027
0.089133326
0.08904181904
0.08901762015
0.08905850187
0.08908878757
0.08911113735
0.08912784039
0.08913963376
0.08914811761
0.08915407233
0.08915763694
0.08915989234
0.08916045948
0.08915723714
0.0890956108
0.08888246602
0.08805568584
0.08756730807
0.08405450023
0.08521089605
0.07187438795
0.0001343431827
0.0001128279356
0.0001002862839
0.0001231348202
0.0002788638367
0.0008595583511
0.002317946928