/*--------------------------------*- C++ -*----------------------------------*\
| =========                 |                                                 |
| \\      /  F ield         | OpenFOAM: The Open Source CFD Toolbox           |
|  \\    /   O peration     | Version:  2.2.1                                 |
|   \\  /    A nd           | Web:      www.OpenFOAM.org                      |
|    \\/     M anipulation  |                                                 |
\*---------------------------------------------------------------------------*/
FoamFile
{
    version     2.0;
    format      ascii;
    class       volScalarField;
    location    "1";
    object      p;
}
// * * * * * * * * * * * * * * * * * * * * * * * * * * * * * * * * * * * * * //

dimensions      [0 2 -2 0 0 0 0];

internalField   nonuniform List<scalar> 
86889
(
590.0558486
589.7122524
589.5761318
589.4069189
589.1451824
588.8584845
588.549165
588.2198905
587.8700374
587.4785991
587.0327601
586.5338089
585.978108
585.354916
584.650372
583.8569469
582.9627517
581.9538633
580.8137573
579.5246582
578.0646951
576.4100043
574.531242
572.3956142
569.9610617
567.186233
564.0102894
560.3708578
556.1878582
551.3693022
545.7837884
539.3032177
531.7738706
523.0303875
512.8913753
501.1260262
487.5603099
471.8923697
453.7582868
432.8156457
408.6928116
381.0866955
349.7429197
314.4883663
275.265374
232.1892219
185.5899007
136.191799
85.6204411
38.30609401
589.9053937
589.6488676
589.4698956
589.2739
589.0527697
588.7993351
588.5144127
588.2061693
587.8723159
587.4957717
587.0660711
586.5823266
586.037202
585.422977
584.7294229
583.9471734
583.0646918
582.0686212
580.9425308
579.6694804
578.2265025
576.5924138
574.7353186
572.626162
570.2229368
567.4823202
564.3492913
560.7584265
556.6314129
551.873368
546.3619625
539.9733208
532.5554791
523.9283797
513.9254524
502.3117688
488.9487304
473.406832
455.4256296
434.6275569
410.6476749
383.153258
351.8763697
316.621045
277.2998428
233.9887802
186.9516338
136.8351543
85.58264867
38.13195589
589.9045471
589.7319809
589.5800689
589.3956382
589.17992
588.9419849
588.6651814
588.3489978
588.0018542
587.6214051
587.1923678
586.7127318
586.1775308
585.5758185
584.8986265
584.1357117
583.2763273
582.305587
581.2096181
579.9692181
578.5654002
576.9726678
575.1657099
573.1099933
570.7718493
568.1041656
565.0589261
561.5699306
557.564918
552.9452279
547.6019601
541.3967502
534.1933889
525.8130196
516.0762295
504.7589608
491.7170926
476.5290419
458.9096629
438.4642509
414.7723409
387.5194052
356.3829677
321.1540843
281.688177
238.0327868
190.4479655
140.1226081
86.99605178
39.28920999
589.9151771
589.7399018
589.5771087
589.3788234
589.1868611
588.96933
588.7083468
588.4147303
588.0910285
587.7298894
587.3289738
586.8747607
586.3635759
585.7878644
585.139059
584.4077128
583.5825754
582.6509633
581.597992
580.4070465
579.0582027
577.5290872
575.7933905
573.8209367
571.5771884
569.0209327
566.1034655
562.7646927
558.932249
554.51791
549.4078474
543.4809416
536.5890884
528.5662574
519.2051389
508.291428
495.6305661
480.9253275
463.8002132
443.8259735
420.5801792
393.6892206
362.7899661
327.5998584
287.9484651
243.9117935
195.9629806
144.9331699
89.71495715
40.6408797
589.9932606
589.830341
589.6876173
589.5040859
589.3249189
589.1369883
588.8942427
588.6060393
588.2896867
587.9401256
587.5503088
587.1140096
586.6250538
586.0767242
585.4610051
584.7684237
583.9881176
583.1074633
582.1121843
580.9861212
579.7104141
578.2637939
576.6217381
574.756308
572.6353537
570.2214245
567.46939
564.3237441
560.7174361
556.5632059
551.7560334
546.1782341
539.6813045
532.0982922
523.2365305
512.8861765
500.8155239
486.7551244
470.2900721
450.9545312
428.294818
401.8770311
371.2962263
336.1906402
296.3257708
251.8816159
203.0597628
150.2899042
93.09575841
42.1802868
590.0903953
589.9267945
589.7856149
589.6030968
589.4268311
589.2498225
589.0339391
588.7643923
588.4694839
588.1497637
587.7905375
587.3861322
586.932729
586.4240431
585.8525674
585.2096223
584.4851265
583.6672573
582.7425221
581.6954813
580.5084528
579.1613844
577.6315412
575.8933423
573.9178568
571.6718577
569.1156645
566.1992601
562.8596538
559.018253
554.5753071
549.4055083
543.3577334
536.2790508
527.9915633
518.2944664
506.9593632
493.6828818
478.0293064
459.4930964
437.5616457
411.7409326
381.5555999
346.5633977
306.4322681
261.3149556
211.1130573
156.6289288
97.15407817
43.9972227
590.2257917
590.0678027
589.9373642
589.7673811
589.6034057
589.4401968
589.2458664
589.0022894
588.7267776
588.4245227
588.0902667
587.7168126
587.3002685
586.8345176
586.3126368
585.7266519
585.066906
584.3222008
583.479649
582.5245482
581.4401012
580.2074017
578.8053586
577.2108001
575.3983109
573.339639
571.0016604
568.3417192
565.3035604
561.8100939
557.7746285
553.0716365
547.5465839
541.0745793
533.4724737
524.5336346
514.0238655
501.6129161
486.8486538
469.1987743
448.0904437
422.9578812
393.2511737
358.4015588
317.9669213
271.8904607
220.2461522
163.992548
101.8677701
46.12408431
590.3828811
590.2269167
590.1008813
589.9373181
589.7825083
589.6306981
589.4535223
589.2338187
588.9898311
588.7184302
588.4169153
588.0818536
587.7097836
587.2947259
586.8300375
586.3088619
585.7225056
585.060502
584.3106077
583.4587301
582.4887272
581.3824998
580.1201791
578.6809077
577.0425355
575.1825131
573.0751643
570.6878618
567.9733478
564.8586489
561.2597156
557.0494176
552.0712455
546.2015354
539.2755651
531.1120166
521.5004132
510.0862265
496.3769514
479.7229371
459.5142612
435.1347744
405.9408294
371.2569458
330.4855068
283.3981727
230.1326905
171.995314
106.9690419
48.41525416
590.5645098
590.4124622
590.2939948
590.1408161
589.999444
589.8633469
589.7026653
589.5054718
589.2882077
589.0501601
588.782849
588.486732
588.1609264
587.8000751
587.3978895
586.9478964
586.4423527
585.8714178
585.2234668
584.4846401
583.6391515
582.6688153
581.5545641
580.2767614
578.8165581
577.1573028
575.2820047
573.1742172
570.7913784
568.0706857
564.9372219
561.2696889
556.9223522
551.7622964
545.6156035
538.3049644
529.5594164
519.144479
506.4461289
490.8017184
471.5250303
447.9178481
419.2504748
384.7231487
343.6472729
295.5969052
240.6712274
180.5228623
112.4358561
50.90038823
590.7645359
590.6153402
590.5025513
590.3581108
590.2289238
590.1076891
589.9653845
589.7932671
589.6035814
589.4004044
589.1718216
588.9191665
588.6435394
588.3408958
588.0055833
587.6319896
587.2131166
586.7400792
586.2017681
585.5843994
584.8721631
584.0457631
583.0852946
581.9718563
580.6876947
579.2224229
577.5699915
575.7297399
573.680536
571.3634779
568.7015423
565.5487556
561.7496152
557.1875864
551.7186541
545.2155732
537.5027088
528.2200343
516.6726184
502.1012578
483.780959
460.9448578
432.7663697
398.3535502
356.901655
307.8685343
251.2520021
188.9884153
117.8413605
53.34900722
590.9809976
590.8351721
590.7290037
590.5940719
590.478149
590.3725089
590.2491344
590.1018053
589.9409838
589.7713058
589.5818282
589.3746798
589.1514395
588.9095631
588.6444384
588.3513925
588.0244646
587.6555747
587.2344469
586.7468749
586.1759407
585.500889
584.6981035
583.7488666
582.6348926
581.3473176
579.8893126
578.2801599
576.5325008
574.6198308
572.4653513
569.9470733
566.8814216
563.1013884
558.4266633
552.597846
545.6931623
537.3321307
526.7909201
513.2353465
495.8521227
473.750231
446.0194143
411.6931666
369.8451462
319.8803421
261.6616283
197.3260418
123.1976305
55.80649863
591.2099992
591.0671895
590.9671109
590.8416864
590.738814
590.6489314
590.5447604
590.4225317
590.2911006
590.1550488
590.0052029
589.8446352
589.675107
589.4954898
589.3025242
589.0927159
588.8613549
588.6014723
588.3037339
587.9534114
587.5311316
587.0136912
586.3725985
585.5819627
584.623761
583.4912333
582.2036932
580.8116283
579.3537478
577.8218025
576.1033838
574.0049744
571.3987218
568.1037303
563.9597058
558.9766671
553.2457667
546.2677762
536.9626068
524.4132197
507.8477744
486.3968569
459.0113874
424.6281017
382.26627
331.2742762
271.4394478
204.999224
128.100451
58.03433448
591.4486114
591.3088203
591.2148136
591.0986875
591.0085939
590.9343091
590.8492848
590.7516875
590.6492045
590.546387
590.4357445
590.3214202
590.2054905
590.088142
589.9676305
589.8419234
589.7077627
589.5599916
589.3902475
589.18274
588.9160255
588.5632959
588.090347
587.4552179
586.6254883
585.5908664
584.378722
583.0937774
581.8766289
580.7757123
579.6779898
578.3486556
576.5541267
574.0807335
570.5704786
565.8368585
560.4539749
554.1246657
545.933263
534.5800048
518.962478
498.1583394
471.092503
436.6485491
393.8465519
341.8761134
280.532738
212.1260398
132.6990346
60.14625954
591.6937362
591.5568186
591.4685736
591.3614656
591.2837074
591.2245353
591.1581769
591.0843108
591.0097489
590.9391494
590.8664864
590.796953
590.7331464
590.6764787
590.6268002
590.583766
590.5458379
590.510839
590.4709472
590.4093493
590.3038092
590.1241618
589.8275303
589.362136
588.6775809
587.7568527
586.6373485
585.4396441
584.388001
583.5445221
582.7061643
581.6642664
580.2067123
578.1365515
575.1404819
570.8438996
567.6057719
562.9172074
555.5495449
544.8936841
530.0031526
509.7140442
482.8385686
448.2337601
404.7856668
351.7749521
288.9390876
218.6549247
136.8372074
62.03403208
591.942373
591.8081918
591.725481
591.6268774
591.5607613
591.5159713
591.4674088
591.41593
591.3676815
591.32752
591.2907463
591.2634142
591.2487943
591.2494527
591.2668261
591.3024112
591.3565796
591.4306482
591.5177325
591.6015988
591.6590738
591.6549654
591.5284973
591.2005047
590.5829882
589.6156094
588.3241463
586.9971785
586.2518952
586.1125484
586.1244604
585.8418933
585.187206
584.0512895
581.0694534
575.1048268
572.0939026
568.9353979
563.08589
553.7263849
539.7382554
519.9511234
493.3695615
458.7539676
414.9231981
360.960135
296.7287484
224.7554862
140.7300175
63.82930166
592.1918322
592.0601385
591.9825085
591.8918462
591.8364968
591.8051056
591.7730955
591.742258
591.7181877
591.7060276
591.7021821
591.7133605
591.7435831
591.7963804
591.8746464
591.9816703
592.119967
592.2940258
592.4992117
592.7238732
592.9498913
593.1399259
593.2336013
593.1496863
592.7574798
591.9427782
590.6134289
589.001853
588.0604101
587.8872904
587.9598849
587.9551236
587.6667098
586.6443146
584.5666065
581.3503791
579.3637798
576.6882564
571.456135
562.6787368
549.2659275
529.9223119
503.4479478
468.667848
424.4001603
369.6126816
304.1333141
230.4835564
144.3620876
65.49694866
592.4393971
592.3099768
592.2370702
592.1535585
592.1079388
592.0887405
592.0717406
592.0594004
592.0569365
592.0697907
592.0951419
592.1401829
592.2095989
592.3076423
592.4383522
592.6063488
592.8161305
593.073241
593.3765612
593.7139275
594.0663124
594.3931503
594.6202912
594.6606201
594.351216
593.4667768
591.7379156
589.6748711
589.778946
591.1475023
591.4559306
591.3141176
591.0493329
590.4066752
589.0047562
586.5184024
584.2060923
581.6284382
577.4835738
569.8394387
557.1914746
538.3485845
512.2466256
477.6199982
433.1154288
377.7094917
311.1659304
236.0280979
147.9482628
67.15381784
592.6827713
592.5553388
592.4865981
592.4094692
592.3724012
592.3640258
592.3603104
592.3639692
592.3801889
592.4146317
592.464863
592.5383883
592.6403063
592.7753696
592.9486295
593.1644476
593.4299862
593.7525155
594.134965
594.5710046
595.0526086
595.5476851
596.0050987
596.3346791
596.3631012
595.6838458
593.9754068
590.5228522
591.0026878
591.4416983
592.656866
593.417039
593.543218
593.1720751
592.2254044
590.5110009
589.0315481
587.2569115
583.7936815
576.8168274
564.6669273
546.208985
520.3311126
485.7883233
441.1558693
385.2809632
317.8043495
241.2736389
151.3447196
68.69999245
592.9197846
592.7940564
592.7289943
592.6573241
592.6275889
592.628529
592.6362151
592.6531429
592.6849083
592.7372362
592.8076863
592.9038738
593.030996
593.1939017
593.3973193
593.6466861
593.9474503
594.3062997
594.7235092
595.1883466
595.6836735
596.1708295
596.5778117
596.8227082
596.7529511
596.1301868
594.6978461
592.9701038
593.4136739
595.0908913
595.9513007
596.2984207
596.5089686
596.5163635
595.7049552
594.0611103
592.7894537
591.1793164
587.8427456
581.2737997
569.6530383
551.8005551
526.4544133
492.3447343
447.8915461
391.8643463
323.7753077
246.0756883
154.5879054
70.18700458
593.1486928
593.0244081
592.9623227
592.8951856
592.8715221
592.8802531
592.8973484
592.9247978
592.9688557
593.0352497
593.1211463
593.234084
593.3790961
593.5608815
593.7836796
594.0523673
594.371324
594.7471258
595.1779224
595.6550345
596.1636019
596.670153
597.118402
597.4337881
597.4916728
597.1848796
596.4660309
595.4860168
595.2772414
595.9380914
596.9066796
597.8939669
598.4667717
598.9414525
597.930915
595.9012848
595.6647426
594.6622731
591.3806044
584.8400206
573.4981468
556.0829572
531.1932471
497.4072031
453.1412236
397.0861022
328.5772996
249.9322591
157.2140859
71.37697344
593.3679567
593.2447689
593.185183
593.1214724
593.1026249
593.1175928
593.1420946
593.1773922
593.2305241
593.3072264
593.4039447
593.5279324
593.6839628
593.8762945
594.1083261
594.3838579
594.7059628
595.0790205
595.4999812
595.9567911
596.4312419
596.8925915
597.2873729
597.5441427
597.5830227
597.3514952
596.8860847
596.4703083
596.7611357
597.7611094
598.9683278
600.1304775
600.5196321
601.1395072
600.4007948
596.4070285
596.8094925
596.1394406
592.6547979
585.9713257
574.8183471
557.7575905
533.3098265
499.9105865
455.9982201
400.1611578
331.5773714
252.4649031
159.0261624
72.20623076
593.5763655
593.4539436
593.3961921
593.3351066
593.3197477
593.3394419
593.3694351
593.4100274
593.4691482
593.552589
593.6558557
593.7856694
593.9465779
594.142171
594.3748065
594.6470783
594.9608545
595.3179221
595.715159
596.1406006
596.5776709
597.0035412
597.3827587
597.6723937
597.8333708
597.8508079
597.7838462
597.757316
598.0214056
598.6343043
599.377592
600.1023953
600.5266449
600.6603056
600.1759225
598.4733637
597.8418064
596.2262499
592.3106236
585.2930825
573.9599295
556.920191
532.6495854
499.5359804
455.9298322
400.4010715
332.0416183
252.9263028
159.3976611
72.3693287
593.7729583
593.6509978
593.5945723
593.5351628
593.5220972
593.5450683
593.5788096
593.6222995
593.6845563
593.7714966
593.8775091
594.008567
594.1691085
594.3619122
594.5882242
594.8494752
595.146402
595.4785189
595.8426925
596.228945
596.6223855
597.0040109
597.3485536
597.6259795
597.8092658
597.8926079
597.9281705
598.022243
598.3302625
598.9101502
599.5967773
600.2193905
600.5391683
600.4441381
599.7259534
598.2246412
596.756271
594.3544958
589.8826534
582.2800311
570.4578366
553.1077826
528.7235768
495.6901473
452.3283013
397.1940312
329.3637864
250.8722248
158.111707
71.79531683
593.9571273
593.8354037
593.7798338
593.7210312
593.7092074
593.7341269
593.7700605
593.8142747
593.8771084
593.9647533
594.0702119
594.1986669
594.3545907
594.5398096
594.7544516
594.998928
595.2729612
595.5746934
595.9005974
596.2424649
596.587912
596.9221349
597.2259854
597.4850196
597.6855972
597.8319291
597.9635698
598.1377058
598.4088798
598.7845798
599.1632489
599.4086637
599.3812965
598.9695501
598.0563061
596.5034706
594.2923583
590.9528178
585.5869806
577.1283437
564.5185889
546.5208685
521.6892448
488.4352911
445.1123282
390.351747
323.304021
246.0194814
154.8908349
70.30982542
594.1285592
594.006767
593.9515017
593.8928398
593.8811517
593.9067427
593.9435507
593.9865665
594.0477656
594.1336803
594.2357834
594.3585485
594.5065734
594.680563
594.8796375
595.1033566
595.3505384
595.6184448
595.903201
596.1972134
596.4910769
596.7726271
597.0275972
597.2463212
597.4200267
597.5487012
597.6512826
597.7549789
597.8842422
598.0295589
598.1184167
598.0274205
597.6011029
596.7172025
595.253323
593.0542452
590.0091656
585.7077831
579.2827642
569.7561754
556.1158642
537.1689339
511.5794549
477.8471082
434.4317204
380.0715431
314.1057707
238.6495433
150.0067491
68.07546238
594.2870706
594.1648738
594.1091586
594.050008
594.0374624
594.0624691
594.0990328
594.13933
594.1973291
594.2792672
594.3758215
594.4908823
594.6287902
594.7890251
594.9699192
595.170343
595.3882874
595.6205242
595.8622555
596.106653
596.3455381
596.5682924
596.7634715
596.9232897
597.0378149
597.1042017
597.1294289
597.1239391
597.0807877
596.9603869
596.6925845
596.1626567
595.2310063
593.7872345
591.6833257
588.7419136
584.7342751
579.2700633
571.572241
560.7413736
545.8041441
525.6655327
499.0787317
464.6311021
421.0231059
367.0774683
302.4296772
229.2645462
143.7482524
65.1899677
594.4332528
594.3106643
594.2546259
594.1947985
594.1822338
594.2049958
594.2404216
594.2762685
594.3302798
594.4044724
594.4930697
594.5991708
594.7253727
594.8700759
595.0312046
595.2069523
595.3945414
595.5900544
595.7881964
595.9821852
596.163761
596.3229731
596.4497751
596.5333698
596.5630633
596.5305352
596.4301583
596.2541574
595.9736157
595.5344009
594.8635289
593.8466554
592.3389721
590.2238675
587.3337912
583.4859978
578.4286078
571.7178059
562.6456658
550.386
534.0129687
512.5227702
484.8037765
449.6063505
405.7390236
352.3268811
289.2314611
218.6683005
136.7495668
61.98932134
594.5663482
594.4423255
594.3834749
594.320573
594.3016724
594.3252443
594.3595416
594.3914715
594.4398204
594.5052296
594.5870826
594.6850158
594.7993097
594.9281141
595.0691122
595.2199864
595.3771418
595.536064
595.6908339
595.8341951
595.9571883
596.0500258
596.1005766
596.0967079
596.0235107
595.8674594
595.6104795
595.2293935
594.6842282
593.91055
592.8255816
591.3111226
589.2161669
586.4087566
582.703982
577.8792831
571.658017
563.6305011
553.1343805
539.3746374
521.5016848
498.605927
469.6950491
433.7025213
389.6294213
336.8982899
275.4968302
207.4161361
129.4457733
58.66480264
594.6899917
594.5656573
594.5064497
594.4439806
594.4263076
594.4489651
594.4813481
594.503842
594.5397508
594.5959154
594.6693836
594.7562024
594.8566858
594.9687824
595.0896645
595.2160097
595.3436432
595.4670398
595.5796793
595.6733507
595.7385287
595.7635903
595.735367
595.6376007
595.4526605
595.1588991
594.7299688
594.1278374
593.3039061
592.1826311
590.6728038
588.6439182
585.9376544
582.4105439
577.8611692
572.0534676
564.6940197
555.3602324
543.4428589
528.2045741
508.867811
484.6066866
454.5631178
417.859937
373.6972901
321.7593323
262.1474264
196.4479859
122.3936106
55.48794891
594.8000698
594.6724002
594.6065674
594.5377566
594.5150214
594.532041
594.5533143
594.5651995
594.6001988
594.6569291
594.7261835
594.8054487
594.8954189
594.993559
595.0964865
595.2003933
595.3005433
595.390861
595.4638905
595.5106751
595.5203328
595.4798397
595.3734742
595.1823232
594.8838905
594.4502343
593.8460741
593.0247677
591.9262412
590.4691252
588.5481515
586.0196159
582.7308682
578.5133362
573.1492687
566.3919546
557.9412944
547.3861357
534.1443129
517.5299118
496.8318741
471.3238096
440.2703012
402.9564578
358.797775
307.7564097
249.9220177
186.3816263
115.9265586
52.56533079
594.908822
594.7825561
594.7178311
594.6529181
594.633676
594.6487875
594.6546052
594.6609556
594.685834
594.7291195
594.7857668
594.8526614
594.9288892
595.0114664
595.0966499
595.1795758
595.2548762
595.3151548
595.3526634
595.3569146
595.3160037
595.2148917
595.0360202
594.756355
594.3507254
593.7834805
593.0150477
591.9884911
590.6372988
588.8662439
586.5678399
583.5890914
579.7644294
574.9110368
568.7936528
561.1634565
551.7258869
540.0702715
525.6406323
507.8039515
485.9170604
459.3384563
427.4501997
389.6715963
345.5954374
295.2745013
239.0984946
177.6486894
110.3068826
50.01993416
594.9998097
594.8632081
594.7818324
594.7065262
594.6778247
594.6692075
594.6638636
594.673473
594.7033039
594.7493919
594.8078117
594.872305
594.9432009
595.0169295
595.0893742
595.1560493
595.210828
595.2463123
595.2535483
595.2221366
595.1372334
594.9843501
594.7410504
594.3852383
593.8831704
593.200814
592.2851978
591.0814617
589.5042064
587.4668061
584.8351337
581.4636225
577.1812548
571.7731232
565.0251692
556.6642004
546.3964281
533.8120264
518.392572
499.5539411
476.6981294
449.2718554
416.7232255
378.6105653
334.6368787
284.8394761
229.8155974
170.4022614
105.6237068
47.88213991
595.1136274
594.9781095
594.9078546
594.8474446
594.8029717
594.7827924
594.7692394
594.7629944
594.7763411
594.8095498
594.8521688
594.9035307
594.9635905
595.0251885
595.084466
595.13662
595.1745796
595.1906107
595.1742115
595.11421
594.9957381
594.8001255
594.5074943
594.0880556
593.5120602
592.7327122
591.7035268
590.351024
588.6011973
586.3417456
583.4556912
579.7756101
575.1364383
569.3081667
562.0797467
553.1527932
542.272527
528.9703214
512.7867216
493.2046428
469.6153017
441.5581118
408.5271769
370.2155774
326.360385
277.0708038
222.631505
164.1439305
102.0030533
46.1387892
595.2000432
594.9841993
594.8894848
594.8208428
594.7674453
594.7324672
594.7141666
594.7217087
594.7544905
594.7990342
594.8487303
594.9046254
594.9640558
595.0234641
595.077378
595.1213137
595.1486429
595.1511204
595.1183323
595.0383741
594.8953807
594.671262
594.3420313
593.8798286
593.2482816
592.4037805
591.2898815
589.8382204
587.9621323
585.5511641
582.4788211
578.5813198
573.6797199
567.5510733
559.9720756
550.6538386
539.3521652
525.548291
508.8364033
488.7207732
464.6562253
436.1666745
402.84274
364.3893143
320.6416512
271.681565
217.8139159
159.8728364
100.0941209
44.67429476
595.3890942
595.085502
595.0325207
594.9915425
594.9029979
594.8370996
594.7962077
594.784391
594.8039893
594.8366914
594.8729923
594.9178616
594.9717256
595.0272374
595.0755233
595.1136377
595.1350445
595.130813
595.09012
595.0005249
594.8461203
594.6079237
594.2616821
593.7786084
593.1221423
592.2455102
591.0929244
589.5928075
587.657036
585.1716745
582.0116482
578.0095938
572.9830588
566.6962021
558.9392013
549.4309909
537.8754364
523.8705923
506.9212677
486.5728713
462.2742458
433.5856583
400.1221978
361.6159541
317.9503828
269.2557804
215.9359365
158.8953879
100.0714292
44.8035222
589.8751638
589.5924087
589.3971185
589.2431176
589.0170038
588.7587595
588.477903
588.1704736
587.8336947
587.4525061
587.0179931
586.5282113
585.9762788
585.3546851
584.6536771
583.8634792
582.9716825
581.9654694
580.8281355
579.542891
578.0872155
576.4382275
574.566413
572.4407564
570.0221912
567.2640855
564.1121478
560.5001469
556.349316
551.5616516
546.0266552
539.6026489
532.1399003
523.4423737
513.3762729
501.7231273
488.2731876
472.8370947
454.8858992
434.0860483
410.0989418
382.609411
351.3574548
316.1463815
276.8907693
233.6994765
186.9336568
137.7558075
85.94132176
38.40776636
589.739
589.5265315
589.3170011
589.0877289
588.9068525
588.6928896
588.4332645
588.147005
587.8291073
587.4652014
587.0481803
586.574275
586.0349778
585.4236807
584.7336791
583.9545005
583.0749831
582.0818315
580.9598625
579.6913625
578.2548308
576.6271255
574.7816778
572.6834402
570.2971152
567.5776817
564.4688285
560.9097161
556.8193191
552.1028097
546.6498248
540.323772
532.9671092
524.4131997
514.4801413
502.9618054
489.6774799
474.3762711
456.6239271
435.9650617
412.1216337
384.7644331
353.6033262
318.4015348
279.040377
235.5618596
188.1983846
137.2090692
88.07164127
38.6405506
589.7374466
589.6029373
589.43923
589.2260266
589.0274169
588.8164016
588.57212
588.2861053
587.9577126
587.5873662
587.1689378
586.6963716
586.163607
585.5638248
584.8885044
584.1273321
583.2689729
582.3001737
581.2054901
579.9684972
578.5663447
576.9801588
575.1788564
573.1353902
570.8098036
568.1635399
565.1373405
561.6772751
557.701176
553.1227843
547.8224438
541.6853664
534.5423416
526.2203912
516.5311798
505.2873745
492.3035695
477.2942619
459.843108
439.509422
415.9702724
388.8677371
357.8825901
322.7119499
283.1993903
239.3634402
191.491471
140.0011227
90.92110294
40.20441203
589.7571297
589.6294945
589.4750262
589.2548102
589.0182614
588.8216199
588.6040739
588.3441315
588.0443401
587.698744
587.3077471
586.8632001
586.3580659
585.7866251
585.141325
584.4129492
583.590971
582.6627582
581.6140376
580.4277856
579.0849439
577.5638167
575.8385517
573.8797463
571.6533214
569.1197565
566.2299881
562.9264144
559.1385331
554.7782109
549.7381582
543.8948684
537.1164519
529.1887192
519.935711
509.186802
496.7216252
482.2562913
465.3717934
445.626096
422.618011
395.969668
365.2825721
330.2121232
290.5153635
246.1926989
197.764919
143.3617757
92.98601303
41.6050354
589.8349581
589.7256431
589.5929547
589.4071242
589.1988895
588.980538
588.7741398
588.5327944
588.2428664
587.9060887
587.5269979
587.100211
586.6184418
586.0749814
585.4629659
584.7736497
583.9963215
583.1190077
582.1277598
581.0066088
579.7372356
578.2987686
576.6672015
574.8152336
572.7117214
570.3206364
567.5981517
564.4908092
560.9337463
556.8446288
552.120891
546.6441846
540.2732995
532.8056419
524.0750744
513.898374
502.095319
488.3423067
472.1805661
453.1508578
430.825183
404.7550089
374.4608324
339.5383075
299.6359951
254.6298701
205.4599958
148.5415441
95.53588555
43.11050278
589.9338248
589.8266781
589.6983736
589.5219569
589.3231003
589.1155508
588.8933864
588.6788537
588.4231663
588.1153329
587.7655712
587.3722308
586.927121
586.4237522
585.856347
585.2168589
584.495656
583.681503
582.7613087
581.7199612
580.5401881
579.2023425
577.6842364
575.9609787
574.0046878
571.7837561
569.2602077
566.3861038
563.1031329
559.3331232
554.9763719
549.9407492
544.0575943
537.1377288
529.0203688
519.539215
508.4922056
495.5740796
480.2843259
462.1105434
440.5915098
415.2749913
385.5384055
350.8275769
310.708066
264.8230435
214.33465
155.073903
99.94086303
45.15457428
590.0695112
589.9683899
589.8507564
589.6909061
589.514181
589.3281719
589.1219068
588.9018933
588.6681442
588.3889427
588.0652964
587.7026341
587.2940558
586.8339239
586.3164131
585.7340317
585.0777718
584.3370116
583.4993426
582.5504146
581.4738675
580.251259
578.8620317
577.2837634
575.4919842
573.4601769
571.1568289
568.5425472
565.5672647
562.1553765
558.2183867
553.6791709
548.3731956
542.1002803
534.6980302
525.9997804
515.7979037
503.7817199
489.4559121
472.248692
451.6470564
427.1918105
398.0939101
363.6681559
323.3765705
276.7037353
224.6252126
162.8415164
105.1645446
47.56309906
590.2271999
590.1284296
590.0156379
589.8637053
589.6982214
589.5290807
589.3453065
589.1428338
588.9212124
588.6748617
588.3905145
588.0682713
587.7044855
587.2947627
586.8347482
586.3176354
585.7352987
585.0777573
584.3334923
583.4886318
582.5276008
581.4327313
580.1849153
578.763739
577.1481835
575.3169081
573.2463729
570.9072776
568.2586026
565.2307575
561.7477021
557.724065
552.9875815
547.3506127
540.6661397
532.8120234
523.5454428
512.570488
499.3195721
483.1731049
463.5873207
440.0334801
411.6308077
377.5595059
337.0659272
289.5659417
235.7352791
171.2753278
110.8492725
50.16571421
590.4090495
590.3140553
590.2084826
590.0680223
589.9173226
589.7661227
589.6034895
589.4252941
589.2243353
588.999346
588.7518532
588.4722083
588.1557106
587.80019
587.4024945
586.9568117
586.4553524
585.8892631
585.2474155
584.516565
583.6810819
582.7237517
581.6259022
580.3686998
578.9322588
577.3019621
575.4647254
573.4071795
571.0915241
568.4664795
565.4676754
562.0260143
557.9786797
553.1223192
547.2939288
540.323669
531.9227478
521.9174205
509.7317485
494.6860401
476.1516415
453.5316077
425.8285759
392.1060436
351.4260041
303.071043
247.38821
180.2704933
116.9748091
52.9995778
590.6092876
590.5171307
590.4170825
590.2859349
590.1471657
590.0126653
589.8707572
589.7176555
589.5455335
589.3477245
589.1390231
588.9049856
588.6393576
588.3422682
588.0120275
587.6434484
587.229798
586.7629285
586.2323859
585.6250465
584.9247566
584.1139842
583.1710959
582.0778886
580.816831
579.3795742
577.7634266
575.9721224
573.9946681
571.7795026
569.2613417
566.3215827
562.7914095
558.5145776
553.3645887
547.311474
540.1471874
531.3881346
520.3870505
506.4446928
488.938051
467.1870696
440.0840718
406.6154758
365.7244732
316.4661684
258.8590369
189.1509662
122.9988482
55.76592599
590.82593
590.7370775
590.6432393
590.5220489
590.3965504
590.2785863
590.1567663
590.0281476
589.8844872
589.7186986
589.5487436
589.3605958
589.147887
588.9118744
588.6522345
588.3649015
588.0441949
587.6829759
587.2712131
586.7960347
586.2393066
585.5817727
584.7995334
583.8725249
582.778498
581.5141707
580.0880151
578.5208537
576.8455734
575.045311
573.0461875
570.7560262
567.9843582
564.5248789
560.183296
554.816676
548.552361
540.8188503
530.9361003
518.0787233
501.5651875
480.5907607
454.0242935
420.7612226
379.6383778
329.5355693
270.1163731
197.8981252
128.9722052
58.55979074
591.0550481
590.9691713
590.8810822
590.7697685
590.6571772
590.5556944
590.4539121
590.3497755
590.2351717
590.1029746
589.9723704
589.8307193
589.6721363
589.4987803
589.3117644
589.1084553
588.8845551
588.6341023
588.348005
588.0129742
587.6092236
587.1142346
586.4976385
585.7339912
584.796219
583.673647
582.3993939
581.0386874
579.6460353
578.2415391
576.6842063
574.7984171
572.4006769
569.3862493
565.5074524
560.8808508
556.1785596
550.0539727
541.3878284
529.5506325
513.9281435
493.6130292
467.4690611
434.2541413
392.7072553
341.6399931
280.5279892
205.8797041
134.3555107
61.04564447
591.2937975
591.2109149
591.128509
591.0267813
590.9268554
590.8416015
590.7594207
590.6792745
590.593355
590.4947101
590.4032692
590.3077577
590.2030919
590.0924361
589.9784417
589.8601627
589.7350133
589.598803
589.4442639
589.2568799
589.0154522
588.6932266
588.2522943
587.6462743
586.836045
585.7952521
584.5483743
583.2508591
582.0915478
581.14911
580.2485218
579.1361856
577.5678205
575.2855906
571.9095023
567.7118324
562.9369508
558.0705893
550.9509997
540.3532682
525.6971614
506.0456977
480.2406667
447.0080631
404.9592015
352.8823714
290.1884475
213.2607799
139.3203537
63.34317626
591.5390271
591.4590002
591.3819815
591.2895483
591.2018882
591.1323541
591.0690286
591.012017
590.9538354
590.8877653
590.8343517
590.7835831
590.7313142
590.6817888
590.6393052
590.6048078
590.5779976
590.5566202
590.535748
590.5010642
590.431767
590.2954274
590.0448361
589.6207272
588.9536568
588.013545
586.8040597
585.5089305
584.4880765
583.8101526
583.2248096
582.4893662
581.2517489
579.2967473
574.8174232
570.4875173
572.4049642
567.1182219
560.0265867
550.4588268
536.7336931
517.7348043
492.2367349
458.8240526
416.2500299
363.1077254
298.8384742
219.8033651
143.6723593
65.33581066
591.7877799
591.7104988