/*--------------------------------*- C++ -*----------------------------------*\
| =========                 |                                                 |
| \\      /  F ield         | OpenFOAM: The Open Source CFD Toolbox           |
|  \\    /   O peration     | Version:  2.2.1                                 |
|   \\  /    A nd           | Web:      www.OpenFOAM.org                      |
|    \\/     M anipulation  |                                                 |
\*---------------------------------------------------------------------------*/
FoamFile
{
    version     2.0;
    format      ascii;
    class       surfaceScalarField;
    location    "1";
    object      phi;
}
// * * * * * * * * * * * * * * * * * * * * * * * * * * * * * * * * * * * * * //

dimensions      [0 3 -1 0 0 0 0];

internalField   nonuniform List<scalar> 
265716
(
38.34999062
-1.274369044
-0.8310081082
-41.88294018
2.907749401
2.730577515
39.7748315
-0.8989877354
-0.1512560919
-0.07210574474
-0.3024911271
40.03589267
-0.1419293349
0.1174256537
-0.07978390464
-0.1567734062
40.09612406
0.0208075576
0.06200524988
-0.05945973447
-0.08358424788
40.12398559
0.03686766081
0.0414676292
-0.04910438626
-0.05709222972
40.1345926
0.034878273
0.03518413934
-0.03882186546
-0.04184726345
40.12962403
0.02966764955
0.02954216091
-0.02666313144
-0.02757780758
40.1132474
0.02108010135
0.02171344973
-0.01294797115
-0.01346857665
40.09300524
0.01141091865
0.01379415999
-0.002030172244
-0.002932434537
40.07573158
0.003468285599
0.00831910441
0.00344140707
0.002045286339
40.06430379
-0.001470078986
0.005799855155
0.004391344927
0.002707007296
40.05884849
-0.004506251906
0.004746104897
0.003562872767
0.001653072834
40.05845861
-0.007117243646
0.00379775091
0.00291912078
0.0007906275991
40.06181234
-0.009752122984
0.00330153714
0.002793170224
0.0003042583757
40.06859629
-0.01265017669
0.003034323096
0.002905620361
-7.330396848e-05
40.07823049
-0.01554243906
0.00304135354
0.003180838733
-0.0003133065365
40.08996002
-0.01821697607
0.003336365732
0.003612179943
-0.000460661904
40.10327841
-0.02082796011
0.003982139456
0.004108317573
-0.0005801570685
40.11800709
-0.02342796615
0.004741744485
0.004650918562
-0.0006928894193
40.13380874
-0.02600769153
0.005847327279
0.005192873955
-0.0008332796938
40.15046157
-0.02849134926
0.007109721658
0.005722801678
-0.0009934327549
40.16752089
-0.03083924293
0.008731996363
0.006245136317
-0.001196225235
40.18447491
-0.0329532177
0.01072167821
0.00672103981
-0.001443017449
40.20083065
-0.03478059395
0.0130083776
0.007143395162
-0.001725993234
40.21555632
-0.0363493591
0.01632008894
0.007424180583
-0.00212037112
40.22832506
-0.03735346659
0.01938286163
0.007682876677
-0.002480406611
40.23883327
-0.03804020708
0.02240290608
0.007921004903
-0.002792262212
40.2466068
-0.03839186308
0.02565128138
0.008074526589
-0.003107349145
40.2524313
-0.03832196465
0.0281112053
0.007689192607
-0.00330327248
40.26017724
-0.03645795512
0.0288671837
0.003381768943
-0.003535834746
40.2781207
-0.03050542447
0.03190877216
-0.01401635375
-0.005330354017
40.32352883
-0.01686705532
0.03596621331
-0.05348718046
-0.01102013051
40.41438314
0.002494935678
0.03797519403
-0.1106092726
-0.02071765808
40.52875791
0.009427196638
0.03267179837
-0.1342142022
-0.02226064841
40.57911787
-0.02673941507
-0.005237817486
-0.03345196333
0.01506809457
40.50305442
-0.04772860688
-0.03127926121
0.04698615798
0.1080843839
40.11786787
-0.06847076018
-0.03862581783
0.1463069254
0.3459753727
39.82476344
-0.100166642
-0.03928585566
0.2036999264
0.2288556747
39.68552886
-0.08800122719
-0.00393904808
0.1346990175
0.09647359588
39.62689181
-0.077549244
0.02144619747
0.0881300917
0.02660694706
39.59840478
-0.06405985471
0.04238910008
0.05050807687
-0.0003534941013
39.57423288
-0.0513652832
0.0577457088
0.02628884132
-0.008500388951
39.54363359
-0.04095072322
0.06731252521
0.01484393752
-0.01060930625
39.50405088
-0.03190020567
0.07199044106
0.01056561414
-0.01107619034
39.45663106
-0.02272498227
0.07323568415
0.008072482562
-0.01116696709
39.40452897
-0.01357352872
0.07059939735
0.006136023139
-0.0110638756
39.35620968
0.007665197848
0.04984288281
0.00292718876
-0.01211859079
39.20496773
0.1710958776
-0.0130509534
0.002806913595
-0.009609919953
38.18525125
0.9330358959
0.2393179414
-0.07235944512
-0.08027905306
1.326532702
0.8957435727
41.56894175
-2.801875774
-2.804090022
44.83667034
-0.2639044431
-2.10878951
-47.99021324
4.251868
43.17056546
0.2837961403
1.567140488
-1.083819346
43.06602613
0.02795110092
0.09578473955
-0.1611256816
43.08383427
0.0380032328
0.06777604974
-0.1027796736
43.10581088
0.04516021354
0.05435595219
-0.08462493968
43.11658244
0.04447264924
0.05111420035
-0.07147989238
43.11759706
0.03802790541
0.04436272829
-0.05373737912
43.11030857
0.028258984
0.03386066546
-0.03375077868
43.1002546
0.01643584444
0.02263274394
-0.01760346922
43.09249243
0.00503786435
0.01445076503
-0.008257864679
43.08852933
-0.003741905701
0.009466328205
-0.003231151058
43.0878001
-0.00963337617
0.006218780419
-0.0003620822045
43.09027991
-0.01428706285
0.003908556356
0.0007817251174
43.09612477
-0.01879816729
0.002274059322
0.0009275283749
43.1047614
-0.02317705643
0.001196162325
0.0006943729759
43.11561383
-0.02754217204
0.0006818152633
0.0004659341541
43.12835056
-0.03193782052
0.0006494738745
0.0003349326916
43.14272781
-0.03639707932
0.00092816697
0.0002641717669
43.15852978
-0.04088528573
0.001450045255
0.0002056191418
43.17558686
-0.04536483765
0.002180059823
0.0001205444163
43.19357643
-0.04972734074
0.003269157287
-2.240235985e-05
43.21212619
-0.0537715435
0.004587589088
-0.0002044690769
43.23052989
-0.05737647494
0.006498961046
-0.0004791440024
43.24819804
-0.06034152355
0.00870783322
-0.0008145670939
43.26466669
-0.06257088391
0.01094356055
-0.001190665834
43.27863159
-0.06416191439
0.01455916572
-0.001715392755
43.29027207
-0.0648370409
0.01722569751
-0.002069704226
43.29881301
-0.06501933834
0.0206562667
-0.002569861832
43.30560863
-0.06484306027
0.02233687227
-0.002611789291
43.31166479
-0.06480078543
0.02503955838
-0.002752519198
43.32198114
-0.06485399291
0.02663646793
-0.002604505824
43.34271182
-0.06571709316
0.03113213668
-0.003013032204
43.38312543
-0.06713067824
0.0335927546
-0.004382437093
43.43896162
-0.06979061444
0.02258965165
0.0007909783346
43.48342565
-0.07338880752
-0.02037434592
0.02255846237
43.46130022
-0.07719362923
-0.05182519858
0.1034142543
42.27192621
-0.07916193902
-0.06411424002
1.264178346
41.74893373
-0.07906024274
-0.06698127503
0.5688664479
41.56205104
-0.07835329827
-0.03450820413
0.2117410827
41.50824724
-0.07591940557
-0.00647953274
0.05865171059
41.48985413
-0.07071415932
0.01807782192
0.006967348036
41.46968577
-0.06257019723
0.03865648998
-0.007285184346
41.43868572
-0.05179748452
0.05274030131
-0.01089564307
41.39693648
-0.03949061427
0.06220076192
-0.01286311766
41.34644981
-0.02585212058
0.0682511616
-0.01463982279
41.29179895
-0.01370309342
0.07102965386
-0.01625180013
41.26337119
0.001617359373
0.05431796276
-0.01984520012
41.42217984
0.008209390398
0.01910174195
-0.01502623341
44.21575257
-0.2456180863
-1.493476961
-0.1214429952
0.2902637864
2.221081586
47.84944799
-4.818508049
47.43239956
-0.009931733031
-2.452867494
-49.32552411
4.092019527
45.07273977
0.03109199759
4.155798075
-1.543433976
48.84782517
-0.1475035713
-3.824059492
0.2244289709
48.81912405
-0.02495768478
-0.05543748421
0.1470997374
48.79202961
0.029016123
-0.008541156743
0.05177991108
48.79070063
0.03370683333
0.02088845291
-0.008793413789
48.79390226
0.02879683823
0.0338013992
-0.02777169055
48.79349611
0.02079600424
0.03330956059
-0.02544016417
48.7886323
0.01026908241
0.02645437032
-0.01542350352
48.78220559
-0.001121840278
0.0195079178
-0.006921197575
48.77660406
-0.01001191826
0.014670855
-0.002798981275
48.77362639
-0.01748543823
0.01163084996
-0.000800769914
48.77430754
-0.02471330909
0.009723553929
2.192832612e-05
48.77899895
-0.03223562883
0.008836065835
-8.962351897e-05
48.78752656
-0.03985589931
0.008827331467
-0.0006756697493
48.79920943
-0.04752647296
0.009592049866
-0.001290193338
48.81342594
-0.05531108924
0.01090988035
-0.001752660253
48.82978346
-0.06326358023
0.01262560609
-0.002116176849
48.84800829
-0.07134455007
0.01470034205
-0.002465405888
48.86780398
-0.07938005748
0.01705672475
-0.002836697628
48.88877607
-0.08714746189
0.01970619428
-0.003257605116
48.91058229
-0.0944474459
0.02259039031
-0.003720202409
48.93257728
-0.100969462
0.02583284115
-0.00423435282
48.95401672
-0.1063803318
0.0293770626
-0.004777337068
48.97409565
-0.1104522932
0.03315424819
-0.005351521247
48.99187049
-0.1129919448
0.03699862
-0.005943391613
49.00671778
-0.1140196802
0.040788274
-0.00645305067
49.01849941
-0.1137171921
0.04370732583
-0.006791382753
49.02760883
-0.1126436604
0.04562471282
-0.006933691863
49.03563241
-0.1112752584
0.04506501003
-0.006614269149
49.04584582
-0.1102305785
0.04103242502
-0.005869520711
49.06238195
-0.1099520279
0.03162638452
-0.003928440046
49.09072256
-0.1103836367
0.01689274215
-0.001981784061
49.13436419
-0.11276993
-0.006365205213
0.005701408815
49.19072006
-0.116280087
-0.03891265508
0.02544587641
49.22418506
-0.1203120226
-0.09493685461
0.1045883744
48.1874939
-0.1243740944
-0.2137311624
1.295633049
47.77440977
-0.1213731011
-0.1269843307
0.5823796867
47.64103516
-0.1203928917
-0.04329827905
0.2187103324
47.61006841
-0.1151911874
0.005948694875
0.06428740057
47.60074316
-0.1062010862
0.03318176246
0.01162788108
47.58275675
-0.09298088035
0.05165370952
-0.003259378576
47.5496049
-0.07585103746
0.06470409524
-0.007501435762
47.5024887
-0.05649057551
0.07400032936
-0.009887227015
47.44476685
-0.03522617861
0.07975910151
-0.01266642883
47.37180334
-0.01163806504
0.08565098378
-0.01475631299
47.24887322
0.06482675082
0.08031741288
-0.02060089561
42.46914093
0.2033443351
4.599712004
-0.01511862643
46.448607
0.008256732225
-4.114216558
-0.1191251206
0.0470244169
2.581528153
49.08326707
-4.972949082
47.85945373
0.004212538446
-2.521699489
-49.37244075
4.02054245
45.07464405
0.009662852527
4.227058962
-1.420819975
51.96715335
0.009480680875
-7.810860476
0.7613671157
52.37973569
0.01572656144
-0.9685437637
0.5152773669
52.26379516
0.02657908933
-0.1083945603
0.2267723065
52.22806456
0.02872610761
-0.01187092216
0.0525824666
52.22014438
0.02392057542
0.02623392972
-0.01343726882
52.21533464
0.01647031748
0.03284769718
-0.02371204593
52.20871407
0.006039935851
0.02776403023
-0.0169140825
52.20256911
-0.006231388887
0.01974316594
-0.008488403785
52.19914534
-0.01704693269
0.01358615854
-0.003127118159
52.1987628
-0.02638167223
0.009711669384
-0.0004326067351
52.20202551
-0.03566607797
0.007328161787
0.0003621783332
52.20895216
-0.04507384272
0.005964757728
-5.287127056e-05
52.21910126
-0.05467626326
0.005412279163
-0.0007407057669
52.23200909
-0.0646212785
0.00554266443
-0.001355355811
52.24735316
-0.0750445073
0.006200831781
-0.001811183006
52.26499414
-0.08594277895
0.007225484605
-0.002186937354
52.28482977
-0.09717756693
0.00854456162
-0.002546876308
52.30670235
-0.1084815041
0.01016501241
-0.002935802898
52.33031299
-0.1194808795
0.01209525472
-0.003372184687
52.35507364
-0.1297228907
0.01436448306
-0.00384935948
52.38039838
-0.1387995808
0.01689763799
-0.00439205983
52.40543164
-0.1463329871
0.01985221117
-0.004932642362
52.42941046
-0.1517578811
0.02286043006
-0.005533721737
52.45119211
-0.1549194444
0.02626548198
-0.006119767995
52.46992173
-0.1557387497
0.02963802479
-0.00664894253
52.48524295
-0.1544435476
0.03242486392
-0.007020121835
52.49766634
-0.151633632
0.03365153158
-0.007085573523
52.5083713
-0.1482989112
0.03302113861
-0.006702558268
52.52142758
-0.1446450762
0.02688013668
-0.005522818545
52.53818777
-0.1387214686
0.01533141588
-0.003323342191
52.56886402
-0.1395735073
-0.002077168139
0.0005892032684
52.61388767
-0.1381232631
-0.03286867519
0.01319677979
52.66193016
-0.1372650518
-0.07697378534
0.04991460393
52.6713146
-0.1363917044
-0.1563023829
0.1629960431
52.5271569
-0.1327414511
-0.3177591774
0.4702824652
52.45001856
-0.1277041024
-0.2167513684
0.3002190891
52.43403669
-0.1240426465
-0.1107197918
0.1303490071
52.44192854
-0.1180442871
-0.04891383931
0.04387296295
52.44900582
-0.1110051493
-0.01464771502
0.01237166334
52.43705261
-0.09256155761
0.008973000678
0.002558350405
52.40620889
-0.07242106395
0.02963371054
-0.002222840932
52.35768046
-0.05038462471
0.04898853128
-0.006568985508
52.29434815
-0.0260736799
0.06542714066
-0.01125034132
52.22266746
-0.002846571432
0.07706919689
-0.01418310989
51.3993141
0.02763495101
0.8820588242
-0.02151760979
42.48387479
0.03878192206
9.095052412
-0.01505412881
46.76525911
0.03773129161
-4.189665886
-0.1211944354
0.04198541214
2.657468238
49.08652279
-4.973693138
47.90823344
0.00325887707
-2.523624523
-49.38677344
4.003118417
45.07025193
0.006787075524
4.229439307
-1.388581865
51.98730585
0.01262026995
-8.009280427
1.089087111
53.07525289
0.01687558892
-1.828122168
0.7390262699
53.85028779
0.01939120066
-1.100868605
0.333021779
53.81287811
0.01894245276
-0.04231583643
0.08950937998
53.80712056
0.01464586432
0.0180487679
-0.003016289327
53.804512
0.007722558187
0.03116598761
-0.01980943689
53.80087649
-0.002259323027
0.02707950687
-0.01514450181
53.79634241
-0.01356205697
0.01948594336
-0.007620927342
53.79237327
-0.0245854729
0.01384155004
-0.002333581675
53.79035298
-0.03504875071
0.01023159565
0.0004560827544
53.79172064
-0.04597762791
0.0078930161
0.001051189108
53.79712526
-0.05749725109
0.006587498407
0.0004316392087
53.80631877
-0.06961480295
0.006123648096
-0.000378268944
53.81874595
-0.0824024057
0.006320619724
-0.0009663185853
53.83399507
-0.09596563762
0.007009497381
-0.00133715253
53.85186946
-0.1102999079
0.008099943488
-0.001616883109
53.87232399
-0.1252197065
0.009469946292
-0.001882032379
53.89532169
-0.1403984522
0.01109918724
-0.002179627651
53.9206476
-0.1553188295
0.01303654945
-0.002524227317
53.94786778
-0.1693523112
0.01531769884
-0.002908189707
53.97626662
-0.1817537795
0.01792650354
-0.003370980978
54.00466594
-0.1917906678
0.02092328883
-0.003864879424
54.03227309
-0.1990366145
0.0241283196
-0.004456878331
54.05776438
-0.202847209
0.02745953287
-0.005023337807
54.08002294
-0.2030653851
0.03060467879
-0.005537068394
54.09844827
-0.2000048311
0.03298417638
-0.005848875215
54.11322189
-0.1941404379
0.03356621836
-0.005833188996
54.12635425
-0.187127711
0.03089515008
-0.005199499311
54.14144907
-0.1795502396
0.02348290861
-0.003674143804
54.1662031
-0.1719367247
0.009496097643
-0.001036521151
54.199308
-0.1635173002
-0.01249232232
0.003329191393
54.24882702
-0.1549102186
-0.04563929852
0.01290538157
54.31100489
-0.1467238231
-0.08731436732
0.03459345014
54.36817846
-0.1387182679
-0.1409552523
0.0861055123
54.3930795
-0.1277936205
-0.1967703328
0.1669193682
54.4206495
-0.116605099
-0.1624259587
0.1237534926
54.45290162
-0.1079061962
-0.1113429773
0.06295211525
54.48038085
-0.09924847135
-0.07471390616
0.02843440104
54.48978312
-0.08853571889
-0.04596344415
0.01408851017
54.48131056
-0.07308677754
-0.01861072061
0.007604540342
54.45079317
-0.0522520716
0.007923271985
0.002420891143
54.39996518
-0.02965100838
0.03290815219
-0.002817977855
54.33114857
-0.004307771171
0.05628465354
-0.009239086397
53.29638916
0.01625338432
1.027831091
-0.01217525951
51.63625678
0.04003188843
1.667426024
-0.01969440287
42.49797657
0.05008371204
9.140477546
-0.013502269
46.79014149
0.05453250303
-4.188222042
-0.1207456915
0.05754855433
2.651729951
49.09473862
-4.97189043
47.91539925
0.002017522239
-2.523586215
-49.39001972
3.999448287
45.07044381
0.004267378496
4.22833296
-1.380857629
51.92532124
0.008242179822
-8.086498779
1.235999623
52.9972093
0.01093545219
-1.902521146
0.8365733964
54.69240208
0.01183731674
-2.064361804
0.376723092
55.08028475
0.01069477304
-0.4823707
0.1027359098
55.07501622
0.008308532329
0.01192562794
-0.0003195374658
55.07023854
0.002020438213
0.02945361669
-0.01897356976
55.06462744
-0.008373679669
0.02654695636
-0.01482122362
55.05965449
-0.02046147784
0.01926723674
-0.007394546924
55.05590937
-0.03236863493
0.01343620247
-0.001907586417
55.05437215
-0.04404341417
0.009636665387
0.0008955956677
55.05615909
-0.05627181009
0.007145563757
0.001362089634
55.06164188
-0.06936674333
0.005676804504
0.0007103257589
55.07059617
-0.08350600115
0.005011584109
-7.422900727e-05
55.08262213
-0.09881178759
0.004979830778
-0.000595968579
55.09752831
-0.115377105
0.005411712392
-0.0009059961046
55.11531703
-0.1331749913
0.006189413346
-0.001102643319
55.13612769
-0.1519825186
0.007225729501
-0.001273201034
55.16008068
-0.1713640166
0.008484270069
-0.001471304621
55.18711934
-0.1906646907
0.01002282179
-0.001715258832
55.21694145
-0.2090308431
0.01187215024
-0.00201538929
55.24892106
-0.2254430193
0.0140831542
-0.002373317937
55.281951
-0.2387465111
0.01672041833
-0.002794446783
55.31436939
-0.2478117216
0.01967994562
-0.00332336609
55.34478536
-0.2521494179
0.02273823507
-0.003852310698
55.37163053
-0.2513442375
0.02565005356
-0.004216874487
55.39415286
-0.2455693733
0.02770649794
-0.00466462889
55.51422152
-0.2360409363
-0.07374437471
-0.00442452637
55.52923544
-0.2240933584
0.02567837914
-0.003727729924
55.32755409
-0.2094450419
0.2335024161
-0.001928342249
55.21179101
-0.1940009881
0.1363709624
0.001454160952
55.23860731
-0.1784951005
-0.01774016607
0.005899208638
55.29467083
-0.1615447297
-0.06219163447
0.01276051586
55.35900516
-0.1430742578
-0.09142323526
0.02343616726
55.4414825
-0.1230832626
-0.1395570321
0.04144214296
55.51976786
-0.09841025523
-0.1694813043
0.06180866033
55.58091021
-0.07518385375
-0.1546873525
0.05212013438
55.62373683
-0.06068176266
-0.1262012308
0.0361440497
55.65462357
-0.05046431625
-0.1062023887
0.02652753095
55.8142641
-0.04075604076
-0.2283106652
0.02088533329
56.03631911
-0.02818141547
-0.2826106154
0.01564446804
56.00517848
-0.01121237993
-0.01904510016
0.00913979324
55.85209064
0.008134312366
0.1125949512
0.002700532054
55.34477954
0.02973618104
0.4795486219
-0.006288046733
53.34373984
0.04706591378
1.981007177
-0.01078510842
51.67107789
0.06619002052
1.665418978
-0.01891920999
42.51112601
0.07155267579
9.153007175
-0.01452769135
46.80014342
0.07163823288
-4.18337296
-0.1227518026
0.07350802212
2.658113207
49.098535
-4.972464413
47.91591145
0.001283093384
-2.523435994
-49.39044858
3.998707845
45.06874374
0.002681850647
4.228176834
-1.379423417
51.89802649
0.005096831885
-8.110274316
1.284137133
52.95982611
0.006421343964
-1.924669583
0.8673842429
54.65922723
0.005568491562
-2.082774354
0.3896422484
55.47453107
0.003059508525
-0.914053943
0.1063855855
55.86331643
-6.656369295e-05
-0.3805470302
0.0001370189718
55.86108616
-0.005039243975
0.02809290583
-0.0188026801
55.85628518
-0.01494585027
0.02577148336
-0.01439801544
55.85100409
-0.02709545198
0.01903279396
-0.007117389506
55.84636457
-0.03945842834
0.01343886412
-0.001709172881
55.8433882
-0.05190216809
0.009721145006
0.001114396446
55.84350377
-0.06523304249
0.00726892502
0.001577190475
55.84733528
-0.07986432348
0.005758789433
0.0009077565011
55.8547426
-0.09606506626
0.005043160348
0.000109077269
55.86537634
-0.1139999884
0.004947844864
-0.000392896872
55.87912315
-0.1337559186
0.005286676019
-0.0006541982203
55.89611051
-0.1553084799
0.005936319819
-0.0007897517651
55.9166583
-0.1784361124
0.00680335887
-0.0008971272322
55.94109609
-0.2026372897
0.007849874508
-0.00101396186
55.96961622
-0.2271244771
0.009100006561
-0.001159938696
56.00211554
-0.2507817
0.0106046517
-0.001352757666
56.0380515
-0.2721686224
0.01241527375
-0.001625386909
56.0763472
-0.289669467
0.0145932321
-0.001965910083
56.11523566
-0.3016089389
0.0172227211
-0.002314066273
56.15245852
-0.3066267017
0.02003494669
-0.00278082207
56.18538773
-0.3038243969
0.0227999961
-0.00324946858
56.21221054
-0.2942227095
0.02539846872
-0.003568604065
56.1264594
-0.2777358543
0.1308121397
-0.003366771364
56.05645051
-0.2569011372
0.1053783801
-0.002563231155
55.63423543
-0.2332979806
0.4464711131
-0.0004052651336
55.37776044
-0.2078170854
0.2667698096
0.003518682633
55.40333856
-0.1823394465
-0.03007717836
0.008341314875
55.4500448
-0.1549301442
-0.06762787208
0.01430437807
55.50782449
-0.1246650965
-0.09720287084
0.02101109336
55.59575591
-0.09134381273
-0.1478727263
0.0281987131
55.69613672
-0.0541773199
-0.1789122565
0.03429433287
55.77745502
-0.0209566089
-0.1687520362
0.03320078222
55.82666907
0.001096221646
-0.141425919
0.03042943481
55.85971794
0.01261155864
-0.1249505062
0.02881946554
56.16524089
0.02188076198
-0.3943381243
0.02617280992
56.61406969
0.03288128631
-0.5306826927
0.02078460609
56.67290252
0.04658493941
-0.1298424218
0.01320530701
56.3231724
0.06213118346
0.2903695078
0.00535595288
55.37250825
0.07884773386
0.9060758626
-0.004530743852
53.36456084
0.0915295705
1.972614197
-0.009135952098
51.68653246
0.1027813977
1.658194563
-0.01676177951
42.52101847
0.1018025698
9.147283605
-0.01202350327
46.8075016
0.09478271431
-4.189216495
-0.1204123418
0.09260353194
2.652227042
49.10725963
-4.97108095
47.91588695
0.0006239573414
-2.523494588
-49.39037841
3.998645486
45.06836195
0.001359019694
4.227976918
-1.379128867
51.89141276
0.002607414908
-8.116553311
1.295992122
52.95070329
0.002993134447
-1.930530851
0.8746687359
54.65029521
0.001161908465
-2.08781613
0.392630985
55.46522635
-0.001747185121
-0.9174194325
0.1072952167
56.2481658
-0.00582062769
-0.7776004367
0.0004153236447
56.48062679
-0.01058365488
-0.2079623647
-0.01895392447
56.47565848
-0.02037457408
0.02476983565
-0.01437248518
56.46957784
-0.03263613293
0.01863068807
-0.007009009591
56.46399282
-0.04547323875
0.01323379609
-0.001633586244
56.46000341
-0.05853656109
0.009476874008
0.001147356915
56.45882291
-0.07264164986
0.006967254521
0.001622300126
56.46103504
-0.08847339464
0.005403829299
0.0009935947541
56.46662295
-0.1064369543
0.004568582279
0.0002158709026
56.47537043
-0.1267930104
0.004319124405
-0.0002730950152
56.48734066
-0.1496771593
0.00445915835
-0.0005076917713
56.50287888
-0.175096469
0.004854831986
-0.0006046132067
56.52257719
-0.2028555046
0.005354490685
-0.0006329569445
56.5470526
-0.2324102525
0.005955592174
-0.0006576058439
56.57686689
-0.2628671234
0.006624777759
-0.000696022406
56.61223252
-0.2928306013
0.007446015338
-0.0007623961443
56.65285771
-0.3204035524
0.008462496825
-0.0008525357195
56.69767481
-0.3433042339
0.00983450807
-0.001016758038
56.74475743
-0.3590252766
0.01161454713
-0.001280942985
56.79112472
-0.3652732507
0.01391628713
-0.001637273744
56.83276958
-0.3605111373
0.01713328995
-0.002091779926
56.62737387
-0.3437988996
0.2574215409
-0.002450274717
56.23467936
-0.3181008417
0.4353333321
-0.002274805001
56.08050178
-0.2878090577
0.1863344909
-0.001250693702
55.65664411
-0.2556082722
0.4450592173
0.001106339405
55.40664496
-0.22276184
0.2595911106
0.005350572852
55.45566012
-0.1892016338
-0.05294191281
0.01078601819
55.50928472
-0.1512506493
-0.07435520853
0.0170487295
55.58030046
-0.1064871809
-0.1120630554
0.02286594288
55.66825695
-0.05548223437
-0.150551672
0.02673038307
55.7474496
0.003619955289
-0.1646526036
0.02765821532
55.80813452
0.05005328953
-0.1608748761
0.02917599768
55.84661632
0.07755284191
-0.146677801
0.03173322983
55.87282736
0.09032238429
-0.1369344072
0.03300669636
56.17403572
0.09851969618
-0.408318086
0.03046481476
56.62076307
0.1059124149
-0.5438990164
0.02413452528
56.77203304
0.1133366958
-0.2332661692
0.0152375644
56.43553959
0.1204049918
0.2722383517
0.005974264248
55.38704546
0.1259392522
1.006443904
-0.005048663726
53.38067565
0.1294225267
1.979083588
-0.0106122424
51.70467628
0.1306011214
1.66787357
-0.01969791119
42.53265994
0.123344081
9.166393766
-0.01592296433
46.81438017
0.111166955
-4.172351328
-0.1257542131
0.1072687283
2.666823299
49.10573789
-4.972846483
47.91548129
0.0001799832467
-2.523472654
-49.39022012
3.998655795
45.06751913
0.0004658706426
4.227933601
-1.379078092
51.88865574
0.0008306382269
-8.117414904
1.29805532
52.94665023
0.0004337862079
-1.931281508
0.8758465385
54.64548858
-0.002277406849
-2.088484399
0.393085568
55.4596529
-0.005488928792
-0.9178151371
0.1073927928
56.24199586
-0.009852994443
-0.7788837296
0.0005734157271
56.71072132
-0.01524296462
-0.4451784734
-0.01888739124
56.92070829
-0.02514715861
-0.1907738227
-0.01444024579
56.91385302
-0.03700391973
0.01817679878
-0.0069533954
56.90662978
-0.0497734491
0.01317268489
-0.001648854434
56.90072364
-0.06322671914
0.009480038801
0.001116674982
56.89745811
-0.07792599635
0.006927406377
0.00162292512
56.89734193
-0.09472071332
0.005321515885
0.001042444247
56.90037851
-0.1142269759
0.004462177771
0.0002917534727
56.90644949
-0.1368035133
0.004114420504
-0.0001744296013
56.91576202
-0.1626807762
0.004050534221
-0.000358973452
56.92891851
-0.1919662016
0.00408905332
-0.0003753362881
56.94686364
-0.2245748597
0.0040726029
-0.0002978907823
56.97062531
-0.2600258848
0.004028039706
-0.0001736027471
57.00132979
-0.2974148779
0.003852943755
-9.234797103e-06
57.03980632
-0.3351156292
0.003652005653
0.0001568575833
57.0044116
-0.3699838675
0.08463546227
0.0003398381593
56.95866309
-0.3985369428
0.1004943642
0.0004869621214
56.97823
-0.4181416024
0.03900692287
0.0005424471664
57.03595219
-0.4259576381
0.002552005315
0.0004100151067
57.08848115
-0.4193088733
0.006338553097
-7.010344572e-05
56.65473027
-0.3957377988
0.4862320776
-0.0005428903208
56.26845019
-0.3589307549
0.4275362587
-0.0004271741669
56.11831351
-0.3168278373
0.1787036705
0.0004500265037
55.69559465
-0.2714572772
0.4359423222
0.002623144764
55.44195373
-0.2261238503
0.2501655102
0.006834838246
55.48650945
-0.1835270605
-0.06259764906
0.01236526419
55.54682764
-0.139151703
-0.09108986734
0.0186695298
55.60930824
-0.08886820074
-0.1042065361
0.02410338441
55.70120951
-0.02965997388
-0.1456106599
0.02788350159
55.78660255
0.04751622066
-0.1589518725
0.02965975607
55.8524965
0.1133598946
-0.161558669
0.0323531767
55.88949194
0.1585234446
-0.1533509187
0.03537990001
55.91567761
0.178392368
-0.1526833954
0.03842129791
56.21733295
0.1910564028
-0.4313524827
0.03715562477
56.66486144
0.1977222935
-0.568983211
0.02963861645
56.72175706
0.1993492495
-0.162795666
0.01988168058
56.56895403
0.198664522
0.06477509878
0.00976118758
55.40553626
0.1949626403
1.09588573
-0.001498547319
53.38936798
0.18977164
1.962411864
-0.006597883132
51.70645001
0.1777521101
1.650496711
-0.01473341391
42.53365313
0.1605134588
9.146037246
-0.01041344703
46.81431771
0.1381886446
-4.187508237
-0.1201789788
0.1284319436
2.650615511
49.11202738
-4.969488645
47.91519331
-0.0001568804038
-2.523481555
-49.3900613
3.998686728
45.06702986
-0.000196128293
4.227871867
-1.379046174
51.88755844
-0.0004506132972
-8.117546329
1.298299221
52.94480086
-0.001363959549
-1.93147255
0.8760280885
54.64255237
-0.004543640471
-2.08874141
0.3932563194
55.45539939
-0.007776216751
-0.9180348273
0.1074753326
56.23657768
-0.01218448714
-0.7794743932
0.0006278654172
56.70406226
-0.01792619859
-0.4460572039
-0.01874385421
57.12841642
-0.02803520789
-0.4070158929
-0.01444991481
57.12015979
-0.03950771721
0.01767004902
-0.006909296693
57.11112426
-0.05182955865
0.01273686503
-0.001644857541
57.10302121
-0.06515662085
0.008952168463
0.001081179364
57.09725294
-0.08001476091
0.006250323836
0.001607134959
57.09430663
-0.09731800193
0.004467006539
0.001077030443
57.09417876
-0.1178329274
0.003362020981
0.0003722605202
57.09682849
-0.1420612687
0.002662020783
-5.354155551e-05
57.10258085
-0.1703817213
0.002115211164
-0.0001661730372
57.11229246
-0.2030940309
0.001492902532
-7.620844257e-05
57.12728484
-0.2403569366
0.0006322104359
0.0001579560985
57.14928385
-0.2818584353
-0.0006554086806
0.0004894201208
57.09879274
-0.3262608422
0.07836958561
0.0009679082496
57.04157328
-0.371424324
0.09194916564
0.001579344157
56.93432753
-0.414588224
0.1496021214
0.002248218088
56.75608981
-0.451316147
0.2281048667
0.002912164092
56.73157823
-0.4770843935
0.08002982534
0.003424500682
56.80510569
-0.4878194707
-0.01525301177
0.003587118827
56.87285223
-0.4786054484
-0.01160966503
0.003159692312
56.68939179
-0.4480904771
0.2334154042
0.002397128653
56.31190828
-0.3994398003
0.415976908
0.002015294937
56.16721484
-0.3433096456
0.1688335822
0.002339966019
55.75967022
-0.2911145467
0.4228262876
0.004373642784
55.52531019
-0.2397025302
0.2387908101
0.009145557495
55.59362879
-0.1892478141
-0.0783304227
0.01573005221
55.68188236
-0.1335538892
-0.1167586347
0.02290473393
55.74497144
-0.06360641655
-0.1165891236
0.02823394914
55.81922015
0.02563522537
-0.1589883555
0.02944153435
55.85855994
0.1318588452
-0.151125606
0.02743918595
55.88662218
0.2131525062
-0.1580711078
0.03021408612
55.89712927
0.270228187
-0.1578287025
0.03561058835
55.90464333
0.2907660168
-0.1587480917
0.03885499003
56.16682713
0.2997525409
-0.4088484165
0.03796259359
56.38402998
0.2966185065
-0.3474877193
0.03138450282
56.35475108
0.2825643372
-0.07523254951
0.02129058943
56.3031364
0.2650583419
-0.02483387719
0.0100485038
55.40370184
0.2445935341
0.8527389386
-0.002940833635
53.39897298
0.226095385
1.978270763
-0.009870308516
51.72070573
0.1997853182
1.67742745
-0.0211965457
42.54262974
0.1737759503
9.183847555
-0.01903781912
46.81765406
0.1467300329
-4.152841399
-0.1307252355
0.1358173169
2.680116833
49.10392742
-4.973775986
47.9148811
-0.0003710600043
-2.523472173
-49.38990054
3.998706176
45.06649296
-0.0006186320572
4.227839213
-1.379028366
51.88652779
-0.001297393048
-8.1174511
1.298263336
52.94309383
-0.00255148762
-1.931422009
0.8760436819
54.63985537
-0.005919773326
-2.08872508
0.3933398763
55.45156163
-0.009003504519
-0.9180051688
0.1075264312
56.23168773
-0.01328647903
-0.7797194212
0.000695588089
56.69792179
-0.01913228404
-0.4463688031
-0.01865889036
57.12032384
-0.02890054974
-0.4071471543
-0.01438924594
57.10986384
-0.03984442992
0.01760664429
-0.006809609484
57.09852554
-0.05157661723
0.01269399051
-0.00160826263
57.08785568
-0.06444631741
0.008910863557
0.001049086739
57.07914528
-0.07907466515
0.006163917536
0.001606814436
57.07283332
-0.09643944151
0.004298400101