/*--------------------------------*- C++ -*----------------------------------*\
| =========                 |                                                 |
| \\      /  F ield         | OpenFOAM: The Open Source CFD Toolbox           |
|  \\    /   O peration     | Version:  2.2.1                                 |
|   \\  /    A nd           | Web:      www.OpenFOAM.org                      |
|    \\/     M anipulation  |                                                 |
\*---------------------------------------------------------------------------*/
FoamFile
{
    version     2.0;
    format      ascii;
    class       volVectorField;
    location    "1";
    object      U;
}
// * * * * * * * * * * * * * * * * * * * * * * * * * * * * * * * * * * * * * //

dimensions      [0 1 -1 0 0 0 0];

internalField   nonuniform List<vector> 
86889
(
(15.03491036 0.005950429882 0.004832154256)
(15.05330319 0.004404287218 0.005756776114)
(15.05718942 0.001441239579 0.005921558445)
(15.06270711 0.001616425348 0.004791307411)
(15.07135495 0.0004145576857 0.002501571351)
(15.07774294 -0.001503797402 8.76079986e-05)
(15.07850178 -0.00223948553 -0.0009559084064)
(15.0742092 -0.003004263784 -0.001953810018)
(15.06600335 -0.003269305589 -0.002234460067)
(15.05839194 -0.002638782699 -0.001496881052)
(15.05294376 -0.001722583499 -0.0003530319419)
(15.04977566 -0.001210910674 0.0004593089192)
(15.04886436 -0.001174774169 0.0006969412791)
(15.04930402 -0.001476044673 0.000671815092)
(15.05127788 -0.002050755968 0.000503261758)
(15.05451013 -0.002673762101 0.0003329681641)
(15.05870532 -0.00323615791 0.0002513046508)
(15.0636782 -0.003739874551 0.0002564152402)
(15.06932903 -0.004221407003 0.0003180540165)
(15.07560718 -0.004696782424 0.0004117633903)
(15.08246013 -0.005155599531 0.0005356629308)
(15.089815 -0.005591300232 0.0006935896736)
(15.09755143 -0.005978007864 0.0008813161822)
(15.105536 -0.006306934127 0.001102051119)
(15.11357896 -0.006578180637 0.001345286467)
(15.12146324 -0.006749203016 0.001601216668)
(15.12906045 -0.006868723755 0.001887076848)
(15.13638135 -0.006933237863 0.002121223156)
(15.14323453 -0.007036218609 0.00222966865)
(15.15000374 -0.007109071458 0.002130915754)
(15.15694203 -0.007125573285 0.001739709844)
(15.16417753 -0.007137616327 0.00116817899)
(15.17222398 -0.00738372904 0.000435539101)
(15.18130692 -0.007838296557 0.0002053032513)
(15.19329812 -0.008218138381 0.0004361899273)
(15.20663966 -0.008437137191 0.000374090181)
(15.22103925 -0.01014530207 0.001453425341)
(15.23179108 -0.01111268101 0.001735973808)
(15.2373731 -0.01083030164 0.001832172665)
(15.24010239 -0.01007855033 0.002449113722)
(15.24097671 -0.009091890095 0.003634393571)
(15.23903937 -0.007862495617 0.005289692344)
(15.23299751 -0.006480045657 0.007073116055)
(15.22260684 -0.004879122415 0.008682465281)
(15.20791227 -0.003029796722 0.0100200912)
(15.19128176 -0.001254873162 0.01082171616)
(15.17011269 0.000685455616 0.01152688726)
(15.15518917 0.002802117816 0.01152143668)
(15.12551437 0.003085253194 0.009820267841)
(15.17046224 -0.0054871842 -0.001122309696)
(15.01796692 0.007558608017 0.005896555479)
(15.02782033 0.01067829507 0.005459815767)
(15.03484851 0.01381387258 0.005312737777)
(15.04281216 0.01950806483 0.005799101735)
(15.04966874 0.02341918888 0.004903346481)
(15.05436843 0.02374689909 0.003268988626)
(15.05669236 0.02107125075 0.001495637369)
(15.05535576 0.01627916407 1.963367133e-05)
(15.05147872 0.01040882831 -0.000611957256)
(15.04795857 0.004940593614 -0.0003207918965)
(15.04596426 0.001076037139 0.000325939496)
(15.0451685 -0.001302529301 0.0008419928666)
(15.04538888 -0.002966288261 0.001001227211)
(15.04685737 -0.004358810035 0.0008556371519)
(15.04947855 -0.005596680483 0.00061026659)
(15.05299474 -0.006775982916 0.0004424306106)
(15.05726141 -0.007929650072 0.0003991613236)
(15.06222861 -0.00909130575 0.0004413296392)
(15.0678678 -0.01026418203 0.0005276213313)
(15.07415298 -0.01143752484 0.0006388796529)
(15.08103403 -0.01257691654 0.0007838026696)
(15.08843637 -0.01364967807 0.0009661896029)
(15.09624211 -0.01461650507 0.001178710032)
(15.1042789 -0.01543424599 0.001437231038)
(15.1124058 -0.01609731542 0.001732092354)
(15.12044559 -0.01655413156 0.002031633406)
(15.12817449 -0.01680085656 0.002349564713)
(15.13550631 -0.01690900249 0.002594397416)
(15.1424839 -0.01693953808 0.002742076676)
(15.14930828 -0.01691627476 0.002638744574)
(15.15629343 -0.01701302765 0.002310676908)
(15.16383329 -0.01734272879 0.001595216508)
(15.17274901 -0.01792717556 0.0007924478659)
(15.18281864 -0.01888124142 -0.0005796575964)
(15.19594237 -0.02010510459 -0.0006485460003)
(15.20661095 -0.02117479088 -0.001783586652)
(15.22317923 -0.02294588986 -0.00131614704)
(15.23346741 -0.0238925812 -0.001284985299)
(15.23860093 -0.02402606448 -0.001497300872)
(15.24118275 -0.02344345085 -0.0007136598447)
(15.24236042 -0.02186298477 0.001271361916)
(15.24088579 -0.01925081238 0.003544956025)
(15.23524831 -0.0157515008 0.005694673793)
(15.22514588 -0.01174884686 0.007726781769)
(15.21057095 -0.0074368798 0.009462087887)
(15.19396956 -0.003465814733 0.01089736986)
(15.17261438 0.0008269576003 0.01183894109)
(15.15766958 0.003243275675 0.01333436346)
(15.12795988 0.004399645427 0.01324013549)
(15.14983308 0.00767332805 0.002781595294)
(15.0162829 0.003245424235 0.005922819398)
(15.02290957 0.00475571978 0.007158906654)
(15.02762267 0.005828394636 0.01075772393)
(15.03551238 0.006919541646 0.007154532516)
(15.04334793 0.007651799389 0.002477046722)
(15.04945845 0.006778907883 -0.0005313479547)
(15.05317385 0.005086849273 -0.0006360975823)
(15.05456446 0.003260346533 9.368373188e-05)
(15.05371841 0.001134113034 0.0005739768902)
(15.05154069 -0.001114835387 0.0008351309323)
(15.04949773 -0.003036688001 0.001078893422)
(15.04812842 -0.004456469427 0.001265456252)
(15.04764933 -0.005849499618 0.00121079299)
(15.04844989 -0.007478879537 0.0009486823221)
(15.05056702 -0.009239336906 0.000688579491)
(15.05379163 -0.01106844886 0.0005469297963)
(15.05792455 -0.01294318177 0.0005244357146)
(15.06283443 -0.01486947495 0.0005746650706)
(15.06845649 -0.01683898048 0.000665348484)
(15.07475695 -0.01881735893 0.0007787234798)
(15.08169414 -0.02076009772 0.0009410288923)
(15.08920032 -0.02259391231 0.001125435226)
(15.09716477 -0.02425863909 0.001363698247)
(15.10542967 -0.0256692254 0.001632848883)
(15.11379638 -0.02675608972 0.001923500862)
(15.12209757 -0.02751087601 0.00221852868)
(15.1300402 -0.02788575323 0.002500423911)
(15.13754377 -0.02796324499 0.002735419845)
(15.14455361 -0.02783852355 0.002827827332)
(15.15122289 -0.02766270597 0.002613063089)
(15.15799123 -0.0275735034 0.002190535167)
(15.16532471 -0.02771538955 0.001112715546)
(15.17404918 -0.02799967328 -0.0002221180216)
(15.18397446 -0.02868172886 -0.002418647207)
(15.19688028 -0.0293956927 -0.003613846805)
(15.20770811 -0.03027600894 -0.005711490838)
(15.22382741 -0.03059114029 -0.006642424473)
(15.23457581 -0.03045182828 -0.007749334714)
(15.24003396 -0.0300067896 -0.008639828647)
(15.24358136 -0.02884370503 -0.007926619452)
(15.24591326 -0.02667326204 -0.005104252353)
(15.2455726 -0.02347220516 -0.001614369914)
(15.2406939 -0.01926799318 0.001726741192)
(15.23112037 -0.01443532146 0.004974478469)
(15.21592977 -0.009026065217 0.007987435571)
(15.20055223 -0.004302722306 0.01029875789)
(15.17250514 0.002196319526 0.01216495572)
(15.16806034 0.004442246851 0.01325315758)
(15.12909677 0.007380865711 0.01293816457)
(15.14580689 0.009427508996 0.003045016208)
(15.01607706 0.002243296014 0.005703906004)
(15.02336945 0.004437439714 0.006185232969)
(15.02833697 0.007748446204 0.009860333716)
(15.03776468 0.01051319864 0.006397329342)
(15.04441823 0.01231857269 0.003764084199)
(15.04803954 0.0124514685 0.002285006065)
(15.05017905 0.01118371127 0.0009701542417)
(15.05042062 0.00861718671 0.001186988352)
(15.04888118 0.005001989249 0.001715775715)
(15.04671216 0.001039113694 0.001571551238)
(15.04522228 -0.002284678057 0.001457678128)
(15.04461776 -0.005099191598 0.00149001973)
(15.04497316 -0.007786420198 0.001302908142)
(15.04644337 -0.0103840816 0.0009589606004)
(15.04894399 -0.01291426694 0.0006447463886)
(15.05231834 -0.01544743091 0.0004593171223)
(15.05646293 -0.01805881833 0.0004108628272)
(15.06133536 -0.02077941484 0.0004463753644)
(15.0669313 -0.02359359724 0.00052662542)
(15.07325142 -0.02644678749 0.0006376589878)
(15.08027941 -0.02925701024 0.0007852060002)
(15.08795894 -0.03191985519 0.0009701342588)
(15.09618645 -0.03432316563 0.001196066878)
(15.10479581 -0.03634673213 0.001463308516)
(15.11357191 -0.03788494996 0.001765194194)
(15.12231454 -0.03886945285 0.002083347148)
(15.13071822 -0.03927642455 0.002380942266)
(15.13853381 -0.03916329418 0.002612809282)
(15.14577117 -0.03869041581 0.002679740063)
(15.15238136 -0.03807863866 0.002412035065)
(15.1589358 -0.03745353036 0.001685927178)
(15.16601613 -0.03700591151 0.0002317228761)
(15.17424941 -0.0367940281 -0.002068217326)
(15.18422803 -0.03704873799 -0.005471962239)
(15.19618861 -0.03744447342 -0.00881709446)
(15.20862111 -0.03823690748 -0.01195343934)
(15.22235186 -0.03820354788 -0.01508986881)
(15.23221712 -0.03804044124 -0.01756907485)
(15.23822149 -0.03770070825 -0.01899766962)
(15.24369116 -0.03616990989 -0.01859291893)
(15.24817174 -0.03291312237 -0.01588966554)
(15.24985632 -0.02803030104 -0.01172845836)
(15.24664825 -0.02189924306 -0.006463567268)
(15.23824513 -0.01529668057 -0.0006601907925)
(15.22327882 -0.008255187516 0.004883779508)
(15.20770611 -0.002417715071 0.009461445927)
(15.17920274 0.004445691136 0.01306783172)
(15.1738661 0.008082714788 0.0144723328)
(15.13213244 0.0122105198 0.01371386817)
(15.14743853 0.0141186908 0.003621696003)
(15.01613107 0.00137713106 0.005936320602)
(15.02246913 0.002617805248 0.006134678339)
(15.02673463 0.004074692801 0.009929470496)
(15.03590252 0.00495606354 0.006361344527)
(15.04198013 0.005452559681 0.002866333176)
(15.04478604 0.005107138382 0.001720079607)
(15.04719722 0.003626871793 0.0004187783737)
(15.04817219 0.001889191482 0.0007011226907)
(15.0476222 -0.0005580185744 0.00128854045)
(15.04627239 -0.003473956512 0.001206235642)
(15.04496286 -0.006107694805 0.001166192221)
(15.04401686 -0.008498095252 0.001283625652)
(15.04381409 -0.01101968103 0.001206190007)
(15.04474301 -0.01373441846 0.0009417024313)
(15.04682763 -0.01664318189 0.0006640068846)
(15.04990724 -0.01975069776 0.0004884224786)
(15.05384277 -0.02307165307 0.0004339051247)
(15.05856821 -0.02659763024 0.000461629618)
(15.06407764 -0.03028835911 0.0005354941479)
(15.07039459 -0.03406664767 0.0006403151571)
(15.07752957 -0.03781797483 0.0007777832525)
(15.0854491 -0.04139830956 0.000955730368)
(15.09405949 -0.04463490435 0.001172873458)
(15.10319669 -0.04734951639 0.001431464113)
(15.11260878 -0.04936376577 0.001721311609)
(15.12204849 -0.05056175997 0.002037228312)
(15.13109563 -0.050896101 0.002333470512)
(15.13947024 -0.05042729059 0.002536970651)
(15.14704435 -0.04932979163 0.002537419705)
(15.15374549 -0.04791750266 0.002147178807)
(15.16025963 -0.04635213649 0.001110561222)
(15.16713445 -0.04485150888 -0.0008968599148)
(15.17502868 -0.04329454392 -0.004232618181)
(15.18462327 -0.04158949423 -0.008752856644)
(15.19610747 -0.03969666418 -0.01357183885)
(15.20852954 -0.0377061448 -0.01821834505)
(15.22106192 -0.03481364655 -0.02269216379)
(15.23076519 -0.03179102088 -0.02633661343)
(15.23836072 -0.02947240068 -0.02842553017)
(15.24593699 -0.02733185002 -0.02819514874)
(15.25261155 -0.02457673674 -0.0253316879)
(15.25602178 -0.02051891832 -0.02056539591)
(15.25364668 -0.014917583 -0.01402766652)
(15.24574311 -0.008882288135 -0.006122995607)
(15.22940715 -0.002260518257 0.001965468707)
(15.21495064 0.003101949314 0.008279136465)
(15.1839585 0.009730655976 0.01342265952)
(15.17921124 0.0138391882 0.01506529651)
(15.13494808 0.01782657226 0.01375428679)
(15.14938733 0.01971612177 0.003827861762)
(15.01623334 0.001065990873 0.005934924689)
(15.02254986 0.002097574696 0.005956029044)
(15.02698338 0.003618656075 0.009560031324)
(15.03643314 0.004654725775 0.005923166624)
(15.04237933 0.005293326604 0.002185927532)
(15.04382663 0.005276592701 0.000796508272)
(15.0451117 0.004609598322 -0.0001136818021)
(15.04552358 0.002787953538 0.0004846640347)
(15.04440787 3.816820824e-05 0.001142488247)
(15.04274653 -0.003287318809 0.001087655316)
(15.04146106 -0.006575271188 0.00113094911)
(15.04068529 -0.009747838666 0.001288696996)
(15.04064946 -0.01301373386 0.001214215159)
(15.04163877 -0.01640984366 0.0009446928905)
(15.04365159 -0.0199767214 0.0006514939249)
(15.04655868 -0.02377028448 0.0004628141658)
(15.05027787 -0.0278445845 0.0003948126104)
(15.05480024 -0.03221531991 0.0004081953359)
(15.06016692 -0.03684246796 0.0004647607513)
(15.06644326 -0.04163285934 0.0005477950609)
(15.07368055 -0.0464417636 0.0006584974069)
(15.08188309 -0.05107498037 0.0008030563796)
(15.09098266 -0.05529334364 0.0009859096905)
(15.10081925 -0.05883165316 0.001209261244)
(15.11111335 -0.06142581845 0.001472819834)
(15.12152715 -0.06287048117 0.001770262987)
(15.13162211 -0.0630472877 0.002062005345)
(15.14077632 -0.06204715446 0.002236217069)
(15.14910872 -0.05995324961 0.00219572478)
(15.15603857 -0.05736375395 0.001739752223)
(15.16285757 -0.05438642405 0.0004658115643)
(15.16977344 -0.05138459698 -0.002024458239)
(15.17786442 -0.04822488854 -0.006542381139)
(15.18807802 -0.04503224374 -0.01248653828)
(15.20023709 -0.04207437121 -0.01886900891)
(15.21349153 -0.03906530961 -0.02517920265)
(15.22597037 -0.03511269022 -0.03127705411)
(15.23457334 -0.03105410223 -0.03667064053)
(15.24105748 -0.02756176429 -0.04009228722)
(15.24823699 -0.02392836298 -0.04043824614)
(15.25520315 -0.01994491235 -0.03673454364)
(15.25977179 -0.01509506339 -0.03036171982)
(15.25878101 -0.008959213506 -0.02221410997)
(15.25180899 -0.002397929539 -0.01253475547)
(15.23464386 0.00470231489 -0.00174740679)
(15.22188329 0.01008914254 0.006011795228)
(15.18941266 0.01638246547 0.01195531214)
(15.18467729 0.01998000636 0.01477663323)
(15.1381726 0.02301153806 0.0145280386)
(15.15114558 0.02492274809 0.004918966075)
(15.01625708 0.0006321093165 0.005981261609)
(15.02220185 0.001206028167 0.005935477296)
(15.02640132 0.001950609402 0.009534222663)
(15.03537659 0.002305704144 0.005922162168)
(15.04095502 0.002126284926 0.001932413661)
(15.04255533 0.001472289082 -4.727160988e-05)
(15.04267472 0.000878129293 -0.001089304889)
(15.04306512 -0.000689381547 -0.0002754488605)
(15.04228676 -0.003315780987 0.0007204630411)
(15.0408945 -0.006346839103 0.0008242597203)
(15.03949567 -0.009356276418 0.0009427457671)
(15.03838849 -0.01236814745 0.00119124814)
(15.03793342 -0.01560569881 0.001182122224)
(15.03847042 -0.01917952063 0.0009470030239)
(15.04003496 -0.02314060825 0.0006695147104)
(15.04251127 -0.0275165015 0.0004798308389)
(15.04582755 -0.03233002292 0.0004023286286)
(15.04999823 -0.0375806121 0.000401632241)
(15.05510068 -0.04322010439 0.000438000058)
(15.06124719 -0.04914050478 0.0004932968673)
(15.0685454 -0.05516663212 0.0005684134152)
(15.07705761 -0.06104647178 0.0006703682239)
(15.08676322 -0.06645643437 0.0008036309217)
(15.0975222 -0.07101929779 0.0009763570871)
(15.10903593 -0.07434049056 0.001207588114)
(15.12083003 -0.07608555864 0.001481488421)
(15.13241498 -0.07601272786 0.001750393864)
(15.14290776 -0.07417062399 0.00192158862)
(15.15222535 -0.07089073403 0.001824089353)
(15.1598881 -0.06659557174 0.001226718693)
(15.16716146 -0.06163842081 -0.0002955233269)
(15.17405045 -0.05622623924 -0.003440361024)
(15.18160541 -0.05007680304 -0.009381156745)
(15.19087565 -0.0428305875 -0.01735279886)
(15.20224794 -0.03449867306 -0.02608950356)
(15.21466443 -0.02560162584 -0.03452637767)
(15.2272039 -0.01530236458 -0.04257473225)
(15.23780832 -0.006254991638 -0.04920001479)
(15.24601116 -0.001426003687 -0.05297320862)
(15.25396743 0.0009793073085 -0.05339651758)
(15.26163285 0.002985423847 -0.04885548271)
(15.26692194 0.00555480082 -0.04099526666)
(15.26651759 0.009002028406 -0.03097170317)
(15.25977997 0.01309623822 -0.01945976813)
(15.24150038 0.01784267631 -0.006609925261)
(15.22737557 0.0218532365 0.002352243872)
(15.19349776 0.02673933149 0.009225946603)
(15.18765412 0.02969555741 0.01261364479)
(15.14030912 0.03216192131 0.01297392416)
(15.1532349 0.03357097654 0.003863763877)
(15.01627836 0.0004199747379 0.00597091675)
(15.02216627 0.0008181493587 0.005896834593)
(15.02630631 0.00138015621 0.009456020541)
(15.03516891 0.001651829949 0.005797052561)
(15.04058295 0.001351115373 0.00165520088)
(15.04179781 0.0007174049939 -0.0004446276563)
(15.04143502 -0.0001557956979 -0.001685953042)
(15.04069305 -0.001233315068 -0.0009954649652)
(15.03963012 -0.003784278453 0.0002008742878)
(15.03804638 -0.007056589953 0.0005785253902)
(15.03650709 -0.01043057202 0.0008359562344)
(15.03521254 -0.01378895483 0.001134489808)
(15.03447818 -0.01736965298 0.001145531232)
(15.03463691 -0.02132844122 0.0009203992995)
(15.03574081 -0.02576691637 0.0006482971054)
(15.03770516 -0.03075125302 0.00045136531)
(15.04049452 -0.03632359273 0.0003553627972)
(15.04416964 -0.04249668738 0.0003237000464)
(15.04886523 -0.04923236171 0.0003193778053)
(15.05476002 -0.0564171966 0.0003203513987)
(15.06204223 -0.06385125183 0.0003233310197)
(15.07086326 -0.07121642836 0.0003344868094)
(15.08128344 -0.07808486613 0.0003696757722)
(15.09321395 -0.0839398539 0.0004437533807)
(15.10633605 -0.08820910238 0.0005791862271)
(15.12012784 -0.09035734661 0.0007789412584)
(15.1337147 -0.08995253881 0.001012024706)
(15.14627921 -0.08708691452 0.001206110232)
(15.15731506 -0.08208133403 0.001144381399)
(15.16581469 -0.07554716191 0.0005280104731)
(15.17369054 -0.06815552789 -0.001201096667)
(15.18163272 -0.0604434638 -0.004951385102)
(15.19122158 -0.05275955091 -0.01180782701)
(15.20352607 -0.04472913375 -0.02109714083)
(15.21761924 -0.03591661747 -0.03131171316)
(15.23210616 -0.025534896 -0.04237432511)
(15.24215881 -0.01397243608 -0.05232826577)
(15.2465205 -0.002864817213 -0.06080544736)
(15.24971215 0.005388042825 -0.06549926934)
(15.25497774 0.01009723492 -0.06538138148)
(15.26157369 0.01394844384 -0.05958914429)
(15.26637436 0.01788232193 -0.05012931487)
(15.26590919 0.02212730537 -0.03822753859)
(15.25993371 0.02639817177 -0.0248654626)
(15.24306004 0.03025608537 -0.009839751312)
(15.23010896 0.03298463022 0.0007121574999)
(15.1970615 0.03499437503 0.009347990492)
(15.1915979 0.03630982294 0.01365427612)
(15.14236138 0.03706412628 0.01511881635)
(15.15346411 0.03749182823 0.006405159905)
(15.01627553 0.0001972840319 0.005975449508)
(15.02202605 0.0003943707263 0.005891071872)
(15.02600748 0.000607941585 0.009466482081)
(15.03460574 0.0005884487369 0.005792363386)
(15.03980265 -8.54166953e-05 0.001577398231)
(15.04067416 -0.000910344933 -0.0004970520956)
(15.04024414 -0.002004593243 -0.001953607428)
(15.03908622 -0.003247831154 -0.001394167261)
(15.03749304 -0.005687505365 -0.0002608555458)
(15.03567292 -0.0086826879 0.0003086551392)
(15.03377033 -0.01189954151 0.0007146262594)
(15.03207496 -0.01525774555 0.001072184457)
(15.03086988 -0.01890969781 0.001106650762)
(15.03047386 -0.02306100196 0.000895480841)
(15.03095342 -0.02785276507 0.0006265705015)
(15.03223717 -0.03337041932 0.000415631286)
(15.03431409 -0.03966719155 0.0002912856482)
(15.03728899 -0.04677048447 0.0002175268298)
(15.04136753 -0.05466211609 0.0001506523189)
(15.04681625 -0.06323933651 6.081734684e-05)
(15.05394509 -0.07229279419 -5.810998708e-05)
(15.06301358 -0.08145273741 -0.0002023910052)
(15.07432825 -0.0901529368 -0.0003534154775)
(15.08773642 -0.09767594749 -0.0004882684965)
(15.10288532 -0.1031872416 -0.0005480221888)
(15.11929087 -0.1058632305 -0.0004945852514)
(15.13560628 -0.1050994807 -0.0003172302458)
(15.1513471 -0.1008179681 -0.0001216695901)
(15.16430135 -0.09358838639 -9.880939534e-05)
(15.17410757 -0.08432912197 -0.0005760701991)
(15.1823332 -0.07408735561 -0.002358409471)
(15.18942313 -0.06300730839 -0.006749239732)
(15.19717002 -0.05066600758 -0.01537777842)
(15.20768464 -0.03634095431 -0.0277570522)
(15.22118181 -0.01970801643 -0.04270130217)
(15.23559267 -0.001906445797 -0.05861778033)
(15.24868941 0.01860471791 -0.07371283649)
(15.25601101 0.03465871151 -0.08430786913)
(15.26011502 0.04189854875 -0.08837771166)
(15.26498893 0.04459419243 -0.08765413698)
(15.27112379 0.04567623478 -0.07985775284)
(15.27561 0.04587438994 -0.06730890173)
(15.27458476 0.04563740781 -0.05231756018)
(15.26672966 0.04535263197 -0.03603019804)
(15.2473727 0.04501352977 -0.01814902767)
(15.2319005 0.04536098497 -0.005961049139)
(15.19689224 0.04572371573 0.003594668928)
(15.19014003 0.04662487098 0.008613247045)
(15.14157729 0.04700985429 0.01109840881)
(15.15397668 0.04704036984 0.003250781186)
(15.01627695 6.077064832e-05 0.005971319263)
(15.02196861 0.0001457918444 0.005880997591)
(15.02584114 0.0001986093707 0.009462913593)
(15.03432525 7.56111161e-05 0.005746296964)
(15.0392789 -0.0006765166926 0.001485457113)
(15.0397783 -0.001465159057 -0.0005230753037)
(15.03905008 -0.002542627859 -0.002059615057)
(15.03774926 -0.003926383888 -0.001608742211)
(15.03536633 -0.006471441324 -0.0005039345807)
(15.03324314 -0.009422551778 0.0001762515486)
(15.03088888 -0.01260629526 0.0006610878611)
(15.02871239 -0.01600313736 0.001032428232)
(15.02694997 -0.01974807335 0.001070731)
(15.02589768 -0.02406971096 0.000861905371)
(15.02562986 -0.02915678341 0.0005879047178)
(15.02608452 -0.03513180727 0.0003528572693)
(15.02726754 -0.04208195053 0.0001807069609)
(15.02932144 -0.05007104929 3.135561162e-05)
(15.03252984 -0.05912945724 -0.0001457798609)
(15.03723995 -0.0691983022 -0.0003869177597)
(15.04404064 -0.08006946038 -0.0007066438617)
(15.05324459 -0.0913480929 -0.001113010463)
(15.06534244 -0.1023081395 -0.001572154339)
(15.08056415 -0.1119821912 -0.002032863893)
(15.09834689 -0.1192062335 -0.002392059939)
(15.11817915 -0.1227524147 -0.002575169786)
(15.13866113 -0.1216036554 -0.002484515878)
(15.1577507 -0.1153997061 -0.002130463661)
(15.17378202 -0.1048368297 -0.001816996413)
(15.18530617 -0.09174141572 -0.002005270578)
(15.19500492 -0.07810765496 -0.003629621379)
(15.20507964 -0.06563913834 -0.007779354568)
(15.21790305 -0.0546739277 -0.01537551009)
(15.2344 -0.04400551045 -0.02583536943)
(15.25274598 -0.03176004708 -0.03802012179)
(15.26808614 -0.0148159176 -0.05157625793)
(15.27368005 0.007101673596 -0.06674625698)
(15.27001614 0.02814424677 -0.08148443716)
(15.26341115 0.04839986813 -0.09202493881)
(15.26227018 0.05869028071 -0.09313587763)
(15.26394017 0.06537270374 -0.08636915244)
(15.26618499 0.06890348979 -0.07420508841)
(15.26478079 0.06981074917 -0.05821462688)
(15.25844293 0.06902109436 -0.03989382944)
(15.24291049 0.06624054457 -0.01977367364)
(15.23065882 0.06364773281 -0.005444024101)
(15.19916817 0.05810988463 0.006323407623)
(15.19282635 0.05540390655 0.01249872176)
(15.1423342 0.05257852643 0.0162161914)
(15.15236552 0.05068879405 0.008604651084)
(15.01627324 -4.764640406e-05 0.005971236162)
(15.02189675 -5.309867366e-05 0.005877309115)
(15.02565596 -0.0001568032361 0.009474983402)
(15.03403421 -0.0004085033009 0.005725334046)
(15.03874946 -0.001266578542 0.001441192883)
(15.03894163 -0.002035020801 -0.0004998966607)
(15.03798713 -0.003104501271 -0.002103664106)
(15.03644789 -0.004528687215 -0.001716572436)
(15.03364354 -0.00703092793 -0.0006137258152)
(15.03101631 -0.009850634964 0.0001163872326)
(15.02809299 -0.01288623385 0.0006285185609)
(15.02531397 -0.01618435687 0.0009981963468)
(15.02288552 -0.01989955594 0.001036618159)
(15.02106258 -0.02427893441 0.0008203943626)
(15.01990955 -0.02953823384 0.0005301938908)
(15.01936285 -0.03583319918 0.00026166409)
(15.0194373 -0.04329876134 2.701119957e-05)
(15.02029349 -0.05205814291 -0.0002246461166)
(15.0223073 -0.06222169598 -0.0005545330063)
(15.02598651 -0.07381535612 -0.00102057823)
(15.03206361 -0.08664956978 -0.001663264936)
(15.04110628 -0.1002869992 -0.002503636233)
(15.05372457 -0.1139357052 -0.003499459645)
(15.07092717 -0.126333084 -0.004565860826)
(15.09221284 -0.13588714 -0.00550559165)
(15.11681778 -0.1408103573 -0.006059629716)
(15.14284307 -0.1396108756 -0.006035158427)
(15.16761028 -0.1318197849 -0.005306540467)
(15.18765181 -0.1184553511 -0.004230402854)
(15.20105287 -0.1015340407 -0.003666347218)
(15.20850042 -0.08449407558 -0.004726670244)
(15.21299637 -0.06609597341 -0.008604457852)
(15.21904637 -0.04691957777 -0.01659535903)
(15.23098839 -0.02548519588 -0.028418073)
(15.2506468 0.000465713975 -0.04222561024)
(15.27403408 0.03219170344 -0.05774287454)
(15.291677 0.07018654141 -0.0775421956)
(15.29351658 0.09072004224 -0.09333217323)
(15.2888487 0.09922369485 -0.105203385)
(15.28562943 0.1005466902 -0.1079666445)
(15.28304693 0.09961384095 -0.1024807784)
(15.28070641 0.09483308729 -0.09042843431)
(15.27403722 0.08682078602 -0.07346635843)
(15.26215002 0.0785442787 -0.0535157734)
(15.23998891 0.07097485537 -0.03101830858)
(15.22353662 0.06713891698 -0.01498052566)
(15.18948129 0.06169695724 -0.001675691843)
(15.18318192 0.05896141212 0.005166344612)
(15.13625911 0.05690884806 0.009826372618)
(15.14947498 0.05539472113 0.00314920926)
(15.01627243 -0.0001110178219 0.005969768415)
(15.02184253 -0.000166301958 0.005873166142)
(15.025508 -0.000348425605 0.009485323493)
(15.03379903 -0.000656336758 0.005702101017)
(15.03826782 -0.001520916755 0.001411011885)
(15.03819265 -0.002226386512 -0.0004698852828)
(15.03702177 -0.003236334116 -0.002125822198)
(15.03522764 -0.004661602103 -0.001789232814)
(15.03200915 -0.007024732095 -0.0006700990383)
(15.02889399 -0.009668137937 9.290904119e-05)
(15.02539064 -0.01252186872 0.0006154484785)
(15.02197381 -0.01565843061 0.0009728524235)
(15.01883309 -0.01925171557 0.001004053073)
(15.01616973 -0.02356296413 0.0007732819798)
(15.01402186 -0.02883133454 0.0004592674485)
(15.01231111 -0.035251039 0.0001466475985)
(15.01105521 -0.04300943328 -0.0001726724636)
(15.01038713 -0.05231606027 -0.0005663808983)
(15.01090331 -0.06339133824 -0.001120665221)
(15.01307786 -0.07634919798 -0.001922876165)
(15.01777813 -0.09109208712 -0.003039264766)
(15.02618328 -0.1072209499 -0.004544201622)
(15.03929259 -0.1239673925 -0.006403418142)
(15.05837717 -0.1397993357 -0.008477837623)
(15.08399971 -0.1523383291 -0.01051560742)
(15.11463189 -0.1587057139 -0.0118431254)
(15.1472626 -0.1562431313 -0.0119388907)
(15.17867468 -0.1433934677 -0.01062071342)
(15.20299868 -0.1231636596 -0.00844787143)
(15.21932897 -0.1000446164 -0.006951539754)
(15.2314807 -0.07995534522 -0.007452564541)
(15.24295317 -0.06550703068 -0.01081529386)
(15.25993428 -0.05439886692 -0.01649288617)
(15.28289825 -0.04398589 -0.02431550103)
(15.31204138 -0.03023349158 -0.03120221168)
(15.33200411 -5.368482762e-06 -0.02915379104)
(15.32451366 0.0421330294 -0.03937488871)
(15.30010705 0.08431024581 -0.05831881165)
(15.27573253 0.1213235198 -0.07712251908)
(15.26201044 0.1409796431 -0.08225253272)
(15.25666234 0.147693659 -0.07899168561)
(15.25171117 0.1478864963 -0.06942342904)
(15.24756362 0.1421543262 -0.05567772476)
(15.24362587 0.131745722 -0.03939525943)
(15.23289846 0.115271099 -0.02123916054)
(15.22245959 0.1000439735 -0.006136553753)
(15.19261128 0.08139806478 0.006931392732)
(15.18579498 0.07213714552 0.01434045594)
(15.13738734 0.06507304284 0.01882762617)
(15.14768659 0.06067359898 0.01131254143)
(15.01627049 -0.0001466821503 0.005969045718)
(15.02179347 -0.0002293418935 0.005870275768)
(15.02537934 -0.0004502684872 0.009497544309)
(15.03360025 -0.0007778479388 0.00568258508)
(15.03783108 -0.001591741038 0.00139176032)
(15.03753115 -0.00221144407 -0.000440513312)
(15.0361691 -0.003126173259 -0.00214161426)
(15.03411974 -0.004470959471 -0.001841532573)
(15.03051226 -0.006597185874 -0.0007008420879)
(15.02693324 -0.008978364114 9.079907244e-05)
(15.02286599 -0.01156117891 0.000616896302)
(15.01881011 -0.01442869757 0.0009545647717)
(15.01493962 -0.01776687855 0.0009701982206)
(15.01139694 -0.02183837099 0.0007166329924)
(15.0081779 -0.02689382424 0.0003707132869)
(15.00518405 -0.0331634243 2.926559323e-06)
(15.00237863 -0.04087818722 -0.0004233397766)
(14.99997118 -0.05035700344 -0.0009971016679)
(14.99857205 -0.06193513159 -0.001846579191)
(14.99853806 -0.07584514037 -0.003116553385)
(15.00128708 -0.09215559985 -0.004959719351)
(15.00819991 -0.1106857017 -0.007499176971)
(15.02150248 -0.1307082468 -0.01077230963)
(15.04244199 -0.1506821215 -0.01457319239)
(15.07306519 -0.1678876253 -0.01841683159)
(15.11300292 -0.178681471 -0.02124869321)
(15.15808649 -0.179252015 -0.02124848229)
(15.19993271 -0.1672406164 -0.01786669425)
(15.2314573 -0.14135373 -0.01198224595)
(15.24308476 -0.1148969828 -0.008081953322)
(15.24286217 -0.08667090725 -0.00730005161)
(15.23922055 -0.05831291387 -0.01016775507)
(15.24204847 -0.03684834708 -0.01701154956)
(15.25675738 -0.01602618423 -0.02835025459)
(15.29547806 0.0003083008347 -0.03818955007)
(15.34190645 0.061963915 -0.04538396705)
(15.37418842 0.1156036235 -0.04515448763)
(15.36058866 0.1236779005 -0.05642290067)
(15.33242335 0.130191475 -0.07822234667)
(15.30411325 0.1311171377 -0.09798133342)
(15.28724356 0.1246544434 -0.1051076108)
(15.27140468 0.1128307065 -0.1019749742)
(15.25223687 0.100429084 -0.08797969293)
(15.23103709 0.09121168064 -0.0667904925)
(15.20669314 0.08354919345 -0.0399002973)
(15.19410841 0.0794044057 -0.02016881063)
(15.16763642 0.06996512481 -0.002449250855)
(15.16469897 0.06394446403 0.006596848068)
(15.12291111 0.05828056154 0.01265077214)
(15.13832586 0.05430658366 0.006257705496)
(15.01626948 -0.0001540689909 0.005968354604)
(15.02175196 -0.0002402178338 0.005867567918)
(15.02527449 -0.0004559206141 0.009508824705)
(15.03343692 -0.0007624454169 0.005665784194)
(15.03744851 -0.001470870494 0.001380246681)
(15.03696599 -0.001984920704 -0.0004173002421)
(15.03543807 -0.00276799893 -0.002158502165)
(15.03314999 -0.003953858726 -0.001884423485)
(15.029196 -0.005760407583 -0.0007223372889)
(15.02519625 -0.007792685131 9.363031063e-05)