/*--------------------------------*- C++ -*----------------------------------*\
| =========                 |                                                 |
| \\      /  F ield         | OpenFOAM: The Open Source CFD Toolbox           |
|  \\    /   O peration     | Version:  2.2.1                                 |
|   \\  /    A nd           | Web:      www.OpenFOAM.org                      |
|    \\/     M anipulation  |                                                 |
\*---------------------------------------------------------------------------*/
FoamFile
{
    version     2.0;
    format      ascii;
    class       volScalarField;
    location    "9";
    object      epsilon;
}
// * * * * * * * * * * * * * * * * * * * * * * * * * * * * * * * * * * * * * //

dimensions      [0 2 -3 0 0 0 0];

internalField   nonuniform List<scalar> 
86889
(
0.117350607
0.0495975288
0.02658844158
0.01742945919
0.01356867912
0.01219104162
0.0121772126
0.01297987751
0.01427900724
0.01586703242
0.01759920075
0.01937440821
0.02112296762
0.02279551226
0.02436381424
0.02581452999
0.02714400883
0.02835115044
0.02944446906
0.03043316431
0.03132936151
0.0321484914
0.03290500762
0.03361121124
0.03428110757
0.03492713457
0.0355502128
0.03616712433
0.03679632537
0.03748652399
0.03851520878
0.04030724246
0.04306186703
0.04585855304
0.04572843921
0.04456733187
0.04366008643
0.04297853396
0.04256156158
0.04258649915
0.04324968904
0.04418371546
0.04523392626
0.04632659997
0.04746157034
0.04858339802
0.04983910871
0.05050687537
0.05346812279
0.1266115614
0.1106576677
0.05025760697
0.02634591022
0.0161543518
0.01146880057
0.009332718983
0.00854590816
0.008556995353
0.009073337953
0.009914180949
0.01095581102
0.01210909238
0.01330862391
0.01450685095
0.01567061298
0.0167776605
0.01781540313
0.01877604384
0.01965971304
0.02046600552
0.02120134477
0.02187101211
0.02248519519
0.02305282711
0.02358026453
0.02407847865
0.02454005689
0.02499619289
0.02541980392
0.0258433825
0.02625602985
0.02666178248
0.0270677238
0.02738034649
0.02732737433
0.02635968364
0.02534032054
0.02448113074
0.02384064702
0.02371612417
0.02436781544
0.02522954696
0.02614384164
0.02703641713
0.02790604582
0.0287002759
0.02952294433
0.02957094654
0.03101323752
0.09151834809
0.1096058318
0.05157716159
0.02582588905
0.01520390841
0.01009821435
0.007672925649
0.006779543584
0.006709867719
0.007103752812
0.007773643813
0.008608774931
0.009535728855
0.01050278042
0.01147318568
0.0124214109
0.01333056143
0.0141908563
0.01499698356
0.01574602649
0.01643835292
0.01707940105
0.01767383576
0.01822594458
0.0187420993
0.01922860655
0.01969108293
0.02013339646
0.0205592733
0.02097250607
0.02136909753
0.02175119716
0.02209921797
0.02241244822
0.02260932861
0.02254555189
0.02181105525
0.02097955221
0.02028434747
0.01976079986
0.01945603206
0.01986809498
0.02048856619
0.02118024622
0.0218668319
0.02255988548
0.02318394573
0.0239712525
0.02415659718
0.0242826217
0.08366465732
0.1094092071
0.0512282508
0.02488416357
0.01446338178
0.009477935896
0.006946278129
0.00588618117
0.005694017007
0.005979280887
0.006541748711
0.007273319979
0.008107293719
0.00899603671
0.009902799797
0.01080239644
0.01167738643
0.01251516429
0.01330802548
0.01405343049
0.01475115121
0.01540242394
0.0160105627
0.01657805616
0.01711067916
0.01761386225
0.0180926394
0.01855172292
0.01899153138
0.01941619728
0.01982095383
0.02019895565
0.02053483587
0.02080704337
0.02092921192
0.02059415681
0.0199124034
0.01925373528
0.01873034856
0.01834277007
0.01830119049
0.01864239885
0.01908721293
0.01956125619
0.02002323233
0.02049149746
0.02089480025
0.02148686045
0.02166554724
0.0222324838
0.08280621172
0.1094045399
0.05114040135
0.02478990575
0.01429765793
0.009258501586
0.006725951459
0.005556887827
0.005258299703
0.005433552727
0.005882225227
0.006498758486
0.007222313455
0.008008435972
0.008824591402
0.009645949903
0.01045419234
0.01123693978
0.01198619349
0.01269703939
0.01336739173
0.0139970258
0.01458864282
0.01514461656
0.01566881676
0.01616761804
0.01664448511
0.01710459497
0.01754258127
0.01796938239
0.01837314258
0.01874075451
0.01906320816
0.01932030899
0.01945621041
0.0193406069
0.01875872253
0.01826749374
0.01787940974
0.01758811938
0.01764910283
0.01787931123
0.0181668195
0.01848366088
0.01880613861
0.01915757809
0.01946840871
0.02001783759
0.02014016714
0.02078242076
0.08223836957
0.1094039666
0.05111853284
0.02477079581
0.01427256029
0.009164428352
0.006608726861
0.005409490365
0.005073607165
0.005208139056
0.005615235193
0.006190553636
0.006873624962
0.007622147853
0.008403773974
0.009194245004
0.009975901041
0.01073602697
0.01146601823
0.01216050355
0.01281704062
0.0134349251
0.01401562982
0.01456250619
0.0150787465
0.01557102062
0.01604129511
0.01649357577
0.01693069163
0.01734735255
0.01773903299
0.01810252798
0.01842274151
0.01867706288
0.01883158257
0.01883801799
0.01862206523
0.01814013319
0.01780314235
0.01768569044
0.01767945793
0.01768447214
0.01770940659
0.01784009558
0.01799957123
0.01822277615
0.01844871843
0.01895451403
0.01911854901
0.0197774232
0.08153842317
0.1094033266
0.05111352374
0.0247663056
0.01426555293
0.009154765541
0.006573254
0.005347082444
0.004992482816
0.00510197485
0.005481400971
0.006027745336
0.006681347438
0.007400368493
0.008152822673
0.008914934677
0.009669299335
0.01040336725
0.0111086278
0.01177977734
0.01241422571
0.01301134459
0.01357190036
0.01409906823
0.01459708265
0.0150711808
0.01552480362
0.01596452862
0.01639193
0.01680561103
0.01719874028
0.01756717125
0.01789705556
0.01815684993
0.01831471546
0.01836152808
0.01828232834
0.01809608102
0.01790617169
0.01774207528
0.01758811937
0.01738619464
0.01720186243
0.01719010247
0.01725305214
0.01741270831
0.01759429384
0.01805603574
0.01831933071
0.01891517117
0.08076184289
0.1094026818
0.05111241465
0.02476553241
0.0142642338
0.009152813956
0.006570731919
0.005322323845
0.004950519954
0.005047916679
0.005414625738
0.005947700774
0.00658806071
0.007294211952
0.008034244268
0.0087844734
0.009527401883
0.01025050828
0.01094496914
0.01160543986
0.01222891485
0.01281492135
0.01336419134
0.01388033709
0.01436579882
0.01482737039
0.01527051546
0.01570222339
0.01612769281
0.01655913603
0.01697446404
0.01736649038
0.01771287653
0.01797843049
0.01813320937
0.01817983847
0.01813286277
0.01803059928
0.01788266772
0.01768410373
0.0174488843
0.01715454169
0.01688904517
0.01677619096
0.01678158808
0.01689646177
0.01704710217
0.01748892007
0.01781620189
0.01841777746
0.08027116008
0.1094020167
0.05111167571
0.02476484265
0.01426342061
0.00915185447
0.006569647316
0.005320239669
0.004935871128
0.005019426224
0.005376441979
0.005898430573
0.006527023143
0.007220998151
0.007948594978
0.008686252609
0.009416474735
0.01012675829
0.01080805549
0.01145490498
0.01206388886
0.0126342719
0.01316693826
0.01366676958
0.01413698834
0.01458487351
0.01501387778
0.01543440267
0.01586203481
0.0162973525
0.01672266141
0.01712736779
0.01748395113
0.01775255963
0.01791143951
0.01796115744
0.01790906862
0.01778002629
0.01758511812
0.01731991605
0.01701382939
0.01668841068
0.01637328759
0.01622057583
0.01616574287
0.01622918128
0.01631571011
0.01668017653
0.01710834304
0.01755663234
0.07935566038
0.1094013537
0.05111119648
0.02476455928
0.01426322656
0.009151691311
0.006569467682
0.005318816983
0.004933302975
0.005004152354
0.005357040186
0.005874351595
0.006498631925
0.007188495951
0.007912073428
0.008645619614
0.009371578342
0.01007707788
0.01075285661
0.01139288031
0.01199387151
0.01255622643
0.01308075109
0.01357251002
0.01403471546
0.01447193018
0.01489079499
0.01530558993
0.01572782284
0.01616147345
0.01659419635
0.01700501974
0.01735996483
0.01762241675
0.01775683126
0.01777577717
0.01772737902
0.01764688635
0.01748530028
0.01718153043
0.0168803804
0.01657117809
0.01632353803
0.01618599989
0.01609205737
0.01609660956
0.01617850166
0.01651992502
0.01696514402
0.01745741066
0.07924838082
0.1094006917
0.0511106494
0.02476411061
0.01426282944
0.009151308628
0.006569091139
0.005318141209
0.004932428261
0.005003375997
0.005356034639
0.005872550881
0.006495739852
0.007184063153
0.007905766754
0.008636818536
0.009359586757
0.0100606665
0.01073062374
0.01136353584
0.01195671126
0.01251085251
0.01302426828
0.0134979712
0.01393640304
0.0143456416
0.01473373618
0.01512403621
0.01553147297
0.01596984119
0.01641791118
0.0168541251
0.01723207234
0.01751932976
0.01766643073
0.0176573786
0.01754015964
0.0173421386
0.01713180727
0.01684159378
0.01657880782
0.01635092771
0.01619316
0.01607827475
0.01599973683
0.01600273675
0.01608553064
0.01628339253
0.01674884456
0.01689684015
0.07844713428
0.1094001036
0.0511102184
0.02476383326
0.01426262271
0.00915112618
0.006568912195
0.00531728233
0.004931022752
0.005001836129
0.005354113251
0.005870387212
0.006493478783
0.007181670592
0.007903203833
0.008633390223
0.009354898827
0.01005268716
0.01071884991
0.01134650581
0.01193467582
0.01247693811
0.01297305341
0.01341331672
0.01380916962
0.0141636074
0.01450409786
0.01484782488
0.01523677641
0.01568603773
0.01615677931
0.01661124544
0.01699928298
0.01727378589
0.01745897832
0.01759657188
0.01785148997
0.01798788958
0.01789126502
0.01778799717
0.0175545569
0.01728884152
0.01701658723
0.01680026049
0.01664365853
0.01659528798
0.0166229165
0.01696757328
0.0173385288
0.01783626015
0.07957108772
0.1093995442
0.05110981474
0.02476353685
0.01426237467
0.009150893145
0.006568683234
0.005316818571
0.004930304252
0.005001306731
0.005353384432
0.005869586529
0.006491906372
0.007179255833
0.007899335316
0.008627790697
0.009345652315
0.01003960458
0.01069999107
0.01132225874
0.01189663761
0.01241767604
0.01287336632
0.01326108581
0.01356608592
0.01381364743
0.01402196441
0.01426601528
0.01461993571
0.01513223713
0.01572821303
0.01632615538
0.0168331014
0.01721168737
0.01728461924
0.01724137418
0.01631538083
0.01570702061
0.01545854685
0.01527076871
0.01513517543
0.01505427785
0.01499398591
0.0149535255
0.01493145988
0.01498962949
0.01511204858
0.01534033368
0.01581995541
0.01578565897
0.07710960501
0.1093990742
0.05110944146
0.02476327859
0.01426217644
0.009150726981
0.006568520815
0.005316317258
0.004929596924
0.005000670063
0.005352514916
0.005868244886
0.006490267727
0.007177224642
0.007896557462
0.008623521122
0.009338930697
0.01002872753
0.01068631815
0.01130029026
0.0118602904
0.01234921593
0.0127517243
0.01304467856
0.01320969023
0.01324269028
0.01324877487
0.01332586209
0.01351574516
0.01398724423
0.01459738489
0.01528849616
0.01584937602
0.01629733798
0.01649720551
0.01693791006
0.01814947622
0.01813287208
0.01700875025
0.01644971415
0.01625610397
0.01599773869
0.01571076668
0.01544261039
0.01530873372
0.01528013168
0.01533352939
0.01550503424
0.01593844924
0.01595719371
0.07728257769
0.1093986762
0.05110911472
0.02476303288
0.0142619764
0.009150553346
0.006568353259
0.00531599885
0.004929257721
0.005000574533
0.005352301472
0.005867772855
0.006489335731
0.007175607381
0.007893897081
0.008619126927
0.009330942255
0.01001596723
0.01066454771
0.01126720413
0.01180769998
0.01225653166
0.01258168314
0.0127323865
0.0127189321
0.01277871181
0.01290198591
0.01308025749
0.01320487012
0.01388819911
0.01468942566
0.01565966657
0.01651071797
0.01701106459
0.01722865169
0.01722969673
0.01917263312
0.02192174213
0.02407932008
0.02462221235
0.02476224966
0.02434914557
0.0236507137
0.02288299907
0.02213801503
0.02157163814
0.02109542064
0.02093733429
0.02064277113
0.02105200605
0.08218985196
0.1093983896
0.05110888695
0.02476287172
0.01426185346
0.009150457241
0.006568257822
0.005315746287
0.004929030501
0.005000455846
0.005352280438
0.00586748546
0.006488712788
0.007174547949
0.00789211047
0.008616002903
0.009325263796
0.01000547972
0.01064509582
0.01123270457
0.01174975265
0.01215210559
0.01238360928
0.01237210903
0.01243323227
0.0125690356
0.01279327032
0.01314918266
0.01273878897
0.01313286309
0.01263856048
0.01324758201
0.01429448755
0.01525264202
0.01551497372
0.01601514522
0.0173526016
0.01787296275
0.01775213288
0.01864266417
0.01918243416
0.01922193755
0.01882496425
0.01821831056
0.01751228188
0.01722023746
0.01701221671
0.01706657234
0.01730435953
0.0177774194
0.07946792317
0.1093982069
0.05110873819
0.02476276064
0.01426176478
0.009150382433
0.006568186774
0.005315613646
0.004928999063
0.005000509371
0.005352896
0.005868057698
0.006489003363
0.007174417172
0.00789129978
0.008614078996
0.009321185949
0.009998060018
0.01063067211
0.01120398678
0.011703294
0.01206366684
0.01222119912
0.01220458515
0.01231137832
0.01257449071
0.0129960612
0.01348930718
0.01371824822
0.01422752265
0.01377586915
0.0148189488
0.01728559178
0.01982626824
0.02019119087
0.01986887208
0.01915540099
0.01818333056
0.01825526626
0.01945679382
0.0205665087
0.02113711023
0.02113232694
0.02051355899
0.01960857387
0.01915768383
0.01872505397
0.01859520156
0.01867031113
0.01875807525
0.08014133448
0.1093981459
0.05110869632
0.0247627328
0.01426174415
0.00915036642
0.006568171743
0.005315570402
0.004928972704
0.005000443401
0.005353112729
0.005868295557
0.006489130971
0.007174387137
0.007891023443
0.008613517581
0.009319605237
0.00999568654
0.01062268158
0.01119288685
0.01167191292
0.01200771588
0.01208193095
0.01205786661
0.01218915
0.01253742706
0.01288442781
0.01325244439
0.01381470095
0.01344635549
0.01731978962
0.02185882185
0.02918175495
0.03611391398
0.03490857694
0.03312084991
0.03164612287
0.02873120074
0.02660404906
0.02557753657
0.02612697373
0.02682366116
0.0268171504
0.02629842325
0.02557394462
0.02521722328
0.02492016454
0.02489241551
0.02468151257
0.02503954442
0.08568942672
0.1093982011
0.05110875497
0.0247627746
0.01426177425
0.009150390619
0.006568194317
0.005315616834
0.00492894521
0.00500046421
0.005352641716
0.005867793153
0.006488772891
0.00717421216
0.007891119998
0.008613919826
0.009321056606
0.009997883471
0.01063057581
0.01120387361
0.01170321635
0.01206344535
0.01222088725
0.01220582854
0.01231222949
0.01257543049
0.01299731131
0.01349036699
0.01371844477
0.01493471372
0.01738341728
0.02634372221
0.043631073
0.06253409277
0.05356344925
0.04695221233
0.04737484816
0.03939347388
0.03474384052
0.03135306206
0.02866688041
0.0271353245
0.02607309697
0.02482684534
0.02354157491
0.02277821651
0.02212229109
0.02179654803
0.02156183633
0.02146874311
0.0823013041
0.1093983776
0.05110890131
0.02476288601
0.01426186314
0.009150465914
0.006568267695
0.005315766438
0.004929005965
0.005000424135
0.005352166397
0.00586741391
0.00648868867
0.00717456021
0.00789215536
0.008616070904
0.009325368379
0.01000557103
0.01064536941
0.01123302149
0.0117499997
0.01215239962
0.01238373926
0.0123725835
0.01243314376
0.01256779743
0.01279152046
0.01314937372
0.01274505168
0.01374326706
0.01930692404
0.03632313614
0.07116572457
0.1782876666
0.1382852153
0.1102087763
0.09800201112
0.07650697957
0.06010921122
0.04962541499
0.0426261458
0.03687330614
0.03260064685
0.02929212177
0.02666805906
0.02478356495
0.02336918455
0.02236473555
0.02188232717
0.02125115386
0.08242146839
0.1093986645
0.05110912824
0.0247630487
0.01426199472
0.009150574729
0.006568374302
0.005316023693
0.004929249513
0.005000515786
0.005352260627
0.00586778068
0.006489373874
0.007175665687
0.007893972518
0.008619219211
0.009331058143
0.01001611219
0.01066484589
0.01126737832
0.01180789815
0.01225685985
0.01258165047
0.01273212034
0.01271803068
0.01277530344
0.01289746287
0.01307895668
0.01353819024
0.0157098933
0.02366987822
0.04409612093
0.09083279284
0.2991202952
0.02952332217
0.02929138687
0.04021464617
0.03919437859
0.03677548696
0.03495600752
0.03386676829
0.03289188312
0.03238475203
0.03219105298
0.03209321081
0.03212186211
0.03224233674
0.03250426537
0.0330026432
0.03313856996
0.1033221822
0.1093990524
0.05110945077
0.0247632919
0.01426219289
0.009150742916
0.006568540334
0.005316361195
0.004929640314
0.005000684466
0.00535259937
0.005868383287
0.006490438852
0.007177422961
0.007896775343
0.008623765673
0.009339184946
0.01002901075
0.01068664628
0.01130086219
0.01186059017
0.01235007677
0.0127522098
0.01304557813
0.01321152807
0.0132487903
0.01325762659
0.01333477959
0.01371633209
0.01557020729
0.02177076265
0.03859959732
0.07258578021
0.1790368951
0.1395726928
0.1107851387
0.09260731951
0.07328470803
0.05774562358
0.04747061559
0.04101649319
0.03646231733
0.03326813294
0.03085667801
0.02900233286
0.02760751399
0.02659112776
0.02604006326
0.0254644687
0.02530160324
0.08826874081
0.1093995221
0.05110980832
0.02476353601
0.01426237946
0.009150903802
0.00656869914
0.005316848225
0.004930374473
0.005001335699
0.005353448327
0.005869685523
0.006492025572
0.007179385362
0.007899474404
0.008627943243
0.009345819126
0.0100398077
0.01070020173
0.01132271296
0.01189709656
0.01241870631
0.01287423812
0.01326443043
0.01357845126
0.01383270481
0.01403111405
0.01429109681
0.01471300102
0.01597459667
0.01940381021
0.02855276415
0.04537520487
0.06333144993
0.05455980359
0.04708938312
0.04159550152
0.03578990353
0.03133565381
0.02803008131
0.02579343439
0.02407790865
0.02272524269
0.02165906193
0.02081860638
0.02020096401
0.0197883092
0.01964129456
0.0197898037
0.01978885813
0.08141873113
0.1094000667
0.05111019538
0.02476382021
0.01426261643
0.009151131846
0.006568927059
0.005317352178
0.004931161451
0.005001962279
0.005354292807
0.005870604938
0.006493719891
0.007181934944
0.00790349991
0.0086337299
0.009355262739
0.01005312918
0.01071923131
0.01134719907
0.01193560733
0.01247829441
0.01297508032
0.01342159729
0.01382878642
0.01419094944
0.01453137389
0.01487774578
0.01527101973
0.0159403424
0.01742037767
0.02112497525
0.02771574255
0.03360869089
0.03045173106
0.02773129645
0.02557484554
0.02345116346
0.02165986153
0.02046804804
0.01954692901
0.0188288129
0.01825103146
0.01779607237
0.01744335422
0.01725041218
0.0171741786
0.01724300131
0.01760450422
0.01754213551
0.07892504951
0.1094006556
0.05111063244
0.02476410579
0.01426283382
0.009151321601
0.006569110949
0.005318184915
0.004932505675
0.005003427365
0.005356131722
0.005872675091
0.006495872382
0.007184188174
0.007905905324
0.008636944359
0.009359725271
0.0100608136
0.01073082439
0.0113637625
0.01195715211
0.01251134623
0.01302570124
0.01350223946
0.01394527712
0.01435629233
0.01474394394
0.01513171088
0.01553826124
0.01600828639
0.01671356973
0.01804055259
0.02027242215
0.02227468775
0.02161586977
0.02050329588
0.01959754785
0.01879474814
0.01815858155
0.01767887915
0.01729990737
0.01698119396
0.01675447147
0.0165870803
0.01646961482
0.01643840911
0.0164931272
0.0167640152
0.01719711865
0.01752736702
0.07923665315
0.109401306
0.05111114999
0.02476452583
0.01426321244
0.00915168608
0.006569474053
0.005318902717
0.00493346343
0.00500430219
0.005357269364
0.005874623103
0.006498949539
0.007188875374
0.007912538676
0.008646177253
0.009372249772
0.01007787263
0.01075379001
0.0113939686
0.01199514798
0.01255766512
0.01308228969
0.01357398884
0.01403667118
0.01447333723
0.01489140085
0.01530472581
0.0157279191
0.0161655165
0.01664463403
0.01722472884
0.01799404843
0.0186695511
0.0186440611
0.01805739032
0.01754869009
0.01714142341
0.0168280993
0.01656711275
0.01636447801
0.01613818902
0.01595878828
0.01587683141
0.01582950758
0.0158725857
0.01598806608
0.01633698979
0.01680654965
0.01730273357
0.07907996304
0.1094019669
0.0511116227
0.02476481407
0.01426341754
0.009151873074
0.006569679844
0.005320372534
0.004936009977
0.005019535079
0.005376612455
0.005898601702
0.006527149909
0.007221076026
0.007948635329
0.008686270611
0.00941648785
0.010126792
0.01080812452
0.01145504615
0.01206413292
0.01263463541
0.01316739272
0.01366737547
0.01413782612
0.0145857355
0.01501429064
0.01543445765
0.01586202214
0.01629739059
0.0167260407
0.01715245375
0.01758002194
0.01793256821
0.01807904121
0.0180429727
0.01793863177
0.01779604351
0.0176097533
0.01736069938
0.01707392155
0.01674907857
0.01645189921
0.01633404937
0.01631652529
0.01642942917
0.01655804199
0.0169827483
0.0173714754
0.01791933373
0.07975587658
0.1094026217
0.0511123212
0.02476546052
0.01426418434
0.00915278612
0.006570718182
0.005322166334
0.004950343732
0.005047815267
0.005414642141
0.005947793577
0.006588246397
0.007294529684
0.008034713402
0.008785118239
0.009528243669
0.01025158676
0.01094627325
0.01160696405
0.01223059366
0.01281667857
0.01336586357
0.01388150664
0.01436664516
0.01482745838
0.01526966081
0.01570059636
0.01612511784
0.01655649505
0.01697256849
0.01736761886
0.01772245236
0.01799672655
0.01814740799
0.0181784475
0.01811492676
0.0179955534
0.01784045666
0.01764021805
0.01741013258
0.01712711608
0.01687956953
0.01678931007
0.01681659226
0.01695897556
0.01713364668
0.01759682971
0.01791157643
0.01854106497
0.08038993628
0.1094032651
0.05111346059
0.02476627018
0.01426554393
0.00915477438
0.006573264824
0.00534723421
0.004992848458
0.005102481096
0.005482327222
0.006028683198
0.006682104246
0.007400970792
0.008153312939
0.008915344751
0.009669641575
0.0104036765
0.01110883318
0.01177981703
0.01241394017
0.01301069726
0.01357120492
0.01409843728
0.01459623058
0.01506968403
0.01552450025
0.01596357061
0.01639056481
0.01680489149
0.01719641787
0.017565993
0.01789767273
0.01816057269
0.01832282864
0.01837515395
0.01830949793
0.01813651597
0.01795595736
0.01779882201
0.01764996207
0.01745281422
0.01727439925
0.01724651707
0.01731952894
0.01749757232
0.01770004693
0.01818656893
0.01843449423
0.01908468689
0.08095285906
0.1094038959
0.05111837574
0.02477065819
0.01427245216
0.009164323175
0.006608653266
0.005409278859
0.005073279468
0.005207652416
0.005614289703
0.006189711006
0.006872809791
0.007621565926
0.008403520553
0.009194336457
0.009976321257
0.01073666846
0.01146676349
0.01216132516
0.01281793479
0.01343618694
0.01401712049
0.01456464752
0.01508168908
0.01557327743
0.01604424838
0.01649756308
0.01693594421
0.01735188067
0.01774625257
0.01810951422
0.01843083991
0.01868662414
0.01884383603
0.01885429327
0.01863957785
0.01815726026
0.01781904402
0.01770171254
0.01769726649
0.01770819195
0.01774148432
0.0178692818
0.01803756808
0.01827861111
0.01851799197
0.01903858437
0.01919248518
0.01987465089
0.08163452739
0.1094044815
0.0511404889
0.02479000461
0.01429771296
0.009258557413
0.006726041274
0.005557631866
0.005259522631
0.005435017379
0.005883869545
0.006500476046
0.007224427089
0.008010759426
0.008827661426
0.009649169855
0.01045735908
0.01124008083
0.01198930861
0.01270023009
0.01337089522
0.01400089354
0.01459287799
0.01514951427
0.01567431018
0.01617607856
0.01665008049
0.01711301506
0.01755059758
0.01797308783
0.01837834071
0.01874833771
0.01907345328
0.01933582577
0.01947881553
0.01936558515
0.01878120778
0.01828909152
0.01790087796
0.01760881933
0.0176784382
0.01791823853
0.01821569308
0.01854229453
0.01887493151
0.01923971345
0.0195605211
0.02011719845
0.02025610501
0.02092200777
0.08237155869
0.1094173847
0.05123181072
0.02488721587
0.01446519978
0.00947906154
0.00694700937
0.005886139295
0.005693515437
0.005978604011
0.00654106573
0.007272711866
0.008106865866
0.008995870929
0.009902246281
0.01080225513
0.01167746285
0.01251529659
0.01330843567
0.01405460298
0.01475282984
0.01540424612
0.01601255602
0.01658035877
0.01711274579
0.0176181388
0.01809684331
0.01855752431
0.01899888913
0.01941965097
0.01982243051
0.02019606201
0.02053111715
0.02080755848
0.02093481984
0.02060538109
0.01992417363
0.01926617187
0.01874353778
0.01835620381
0.01831732189
0.01866208994
0.01911172731
0.01959217156
0.02006226459
0.02053934313
0.02095429818
0.02154671849
0.0217265291
0.02231120542
0.08287180747
0.1096137306
0.05158137587
0.02583022339
0.0152067026
0.01010020427
0.007676382282
0.006783678229
0.00671432222
0.007108757924
0.007779233317
0.008614922419
0.009542477464
0.01051014971
0.01148115318
0.01242972555
0.01333982146
0.01420124222
0.01500844675
0.01575765703
0.01645064627
0.01709109081
0.01768568241
0.01823703073
0.01875400624
0.01924067761
0.01970418357
0.0201477448
0.02057556652
0.02098985627
0.02138875802
0.0217703773
0.02211954138
0.0224354139
0.02263472344
0.02257936234
0.02184151548
0.02100701959
0.02030985782
0.01978498302
0.01949040241
0.01991090146
0.02054009247
0.02124137204
0.02193677926
0.02264088966
0.02326264596
0.02406673104
0.02427821386
0.02443460845
0.08379816711
0.1106576639
0.05025753382
0.02634532483
0.01614962851
0.01146244287
0.009326870104
0.008540407804
0.00855145963
0.009067709954
0.009908479563
0.01094995134
0.01210300032
0.01330230861
0.0145002378
0.01566364035
0.01677059224
0.01780798886
0.01876924408
0.0196523974
0.02045961157
0.0211939033
0.02186359423
0.02247732588
0.02304580327
0.023572107
0.02407328544
0.02453901137
0.0249947137
0.02542706162
0.02584493176
0.02625703348
0.02666066883
0.02707887152
0.02739052722
0.02734281166
0.02637466857
0.02535460095
0.02449547228
0.02385527563
0.02373370385
0.02439174948
0.02526035774
0.02618246112
0.02708326776
0.02796293691
0.02876705195
0.02960864486
0.02966484277
0.03110768989
0.09158968519
0.1173505324
0.0495973751
0.0265884211
0.01743025853
0.01357115271
0.01219486147
0.01218126337
0.01298356975
0.01428215607
0.0158695204
0.01760091453
0.01937525848
0.02112287394
0.02279468291
0.02436230456
0.02581279372
0.02714131557
0.02834754297
0.02943886228
0.03042771246
0.03132575697
0.03214576641
0.03290282416
0.0336086202
0.03427329318
0.03490987154
0.03553298014
0.03613936582
0.03676834592
0.0374669457
0.03849783896
0.04028598373
0.04305290661
0.04584834029
0.04573093257
0.04457325031
0.04366891741
0.04298997787
0.04257544248
0.04261391347
0.04328876383
0.04423308358
0.04529211563
0.04639258857
0.04753479726
0.04866416843
0.04991974684
0.05059433815
0.05358697116
0.1267200025
0.110360905
0.04587605604
0.02162299084
0.01249995001
0.008517565335
0.006748182005
0.006075683538
0.006030610059
0.006384148061
0.00700460367
0.007804363783
0.008718634377
0.009697059279
0.01070013043
0.01169754341
0.01266620074
0.01358973345
0.01445671601
0.01526123372
0.0159997643
0.01667355577
0.01728337142
0.0178337396
0.01832844792
0.01877277332
0.01916999584
0.01953680293
0.01985721231
0.02025073964
0.02095436205
0.02263386654
0.02612789378
0.03192701883
0.03838657562
0.03719967585
0.03413594673
0.0314610649
0.02913016599
0.02724863495
0.0257114516
0.02449239803
0.02354776159
0.02282401041
0.02227669552
0.02187033475
0.02157804939
0.02138474735
0.02149416227
0.02241813405
0.08345227885
0.1003267335
0.04236354597
0.02071876534
0.01103674411
0.006477174772
0.004105570347
0.002768008772
0.001963448779
0.001454058425
0.001118176402
0.0008895434573
0.000730082765
0.0006168599771
0.0005354837076
0.0004766007837
0.0004339492255
0.0004031779891
0.0003812341371
0.0003659354708
0.0003556419033
0.0003493924836
0.0003463905119
0.0003463580183
0.0003491593247
0.0003546076099
0.0003630460362
0.0003738451753
0.0003879248299
0.0004047766453
0.0004287831634
0.000467841387
0.0005406531649
0.0006681956598
0.0008231848196
0.0007889475422
0.0007405636872
0.0006961997939
0.0006576136266
0.0006376685925
0.0006310787198
0.0006378211681
0.0006558319506
0.0006829642264
0.000716155744
0.0007539498019
0.0007953425261
0.0008301891509
0.002269844108
0.002105266282
0.008112755212
0.09870644628
0.04169511596
0.02048568543
0.01095699536
0.006447507882
0.004090514031
0.002755404199
0.001948522468
0.001434573439
0.001092893172
0.0008576801413
0.0006911175519
0.0005704741844
0.0004815641797
0.0004152170693
0.000365343321
0.0003277516146
0.0002996175142
0.0002788794538
0.0002641666257
0.0002544354798
0.0002489509369
0.0002472475596
0.0002489914729
0.0002539838642
0.0002621263973
0.0002734259111
0.0002875885865
0.0003045112356
0.0003236003397
0.0003440039687
0.0003638510164
0.0003809745668
0.0003920461806
0.0003943615943
0.0003760829592
0.0003419065692
0.0003256266335
0.0003377810569
0.000363331692
0.0003969122825
0.0004367922798
0.000482458264
0.0005318031071
0.0005847747693
0.0006419831448
0.0006995827493
0.002241148016
0.002064827659
0.00502648931
0.0988006941
0.04216212849
0.02081451353
0.01101700115
0.006481763202
0.004107601324
0.002763852658
0.001952422901
0.00143599268
0.001092941263
0.0008569704903
0.0006900148222
0.0005692050811
0.000480238165
0.0004138874818
0.0003640285978
0.000326487808
0.0002983454826
0.000277557317
0.0002626799575
0.0002527088369
0.0002468990314
0.0002447644856
0.0002460110035
0.000250490722
0.0002580898429
0.0002688263642
0.0002824918219
0.0002988201843
0.0003172724895
0.0003362717718
0.000353703992
0.0003665688338
0.0003710771766
0.0003618949496
0.0003293567353
0.000301133584
0.0002765407252
0.0002648148847
0.0002707512265
0.0002859935858
0.0003072479798
0.0003330553947
0.0003620656259
0.0003941906531
0.000431028035
0.0007403753287
0.003464190838
0.003166407649
0.005942177558
0.09920875779
0.04287529967
0.02082348493
0.01093814853
0.006447554918
0.004087369423
0.002750110863
0.001942266986
0.001427754269
0.001085595844
0.0008498403727
0.0006826292194
0.0005612170592
0.0004714036995
0.0004040146454
0.0003529559048
0.0003140862454
0.0002845234305
0.0002622398425
0.0002457989064
0.0002341785433
0.0002266753768
0.0002228034883
0.0002222539065
0.0002249273583
0.0002306449043
0.000239522535
0.0002511593883
0.0002653542468
0.0002809956113
0.0002971746367
0.000311461792
0.0003206774581
0.0003215415005
0.0003110530665
0.00028552062
0.0002619444196
0.0002414548979
0.0002269532581
0.0002222836174
0.0002250987884
0.0002341319368
0.0002487307767
0.000267710015
0.0002926045173
0.0006036393239
0.001074861114
0.003554737769
0.003225551623
0.005934567245
0.09920927996
0.0428734412
0.02082688555
0.01093254457
0.006446696977
0.004078267525
0.002744070733
0.001937929964
0.001424408911
0.001082854022
0.0008474923327
0.0006805463806
0.0005593254497
0.0004696508584
0.0004023615328
0.0003513718042
0.0003125392628
0.0002829780975
0.0002606429862
0.0002440826845
0.0002322653474
0.0002244770346
0.0002202522896
0.0002193138529
0.000221553186
0.0002267680143
0.000235166103
0.0002463114115
0.0002332546825
0.0002521219804
0.0003312320861
0.0003784511377
0.0003789914167
0.0003691156715
0.0003522125438
0.0003227157775
0.000295539521
0.0002718729971
0.0002514146762
0.0002337181053
0.0002174288689
0.0002040960638
0.0002051770631
0.0002394034973