/*--------------------------------*- C++ -*----------------------------------*\
| =========                 |                                                 |
| \\      /  F ield         | OpenFOAM: The Open Source CFD Toolbox           |
|  \\    /   O peration     | Version:  2.2.1                                 |
|   \\  /    A nd           | Web:      www.OpenFOAM.org                      |
|    \\/     M anipulation  |                                                 |
\*---------------------------------------------------------------------------*/
FoamFile
{
    version     2.0;
    format      ascii;
    class       volScalarField;
    location    "9";
    object      k;
}
// * * * * * * * * * * * * * * * * * * * * * * * * * * * * * * * * * * * * * //

dimensions      [0 2 -2 0 0 0 0];

internalField   nonuniform List<scalar> 
86889
(
0.01361570516
0.008933514027
0.007385508916
0.007156857821
0.007789839102
0.00907241787
0.01083916037
0.0129466292
0.01526978941
0.01770898798
0.02018808122
0.0226510795
0.02505782763
0.0273787363
0.02959699414
0.03170486872
0.03370072827
0.03558461966
0.03736323728
0.03904416523
0.0406369832
0.04215418317
0.04360769916
0.04500853616
0.04636919919
0.04770152272
0.04900997668
0.05030894254
0.05161536431
0.05296746409
0.05456066445
0.05670319449
0.0595367192
0.06243400098
0.06335682317
0.06358083732
0.06398372857
0.06457289577
0.06538127942
0.06653003215
0.06816370575
0.07002378806
0.07200138899
0.07404626869
0.07615927739
0.07830405876
0.08057782026
0.08257780855
0.08600097184
0.1322643859
0.01309531115
0.009722208434
0.007202879074
0.006115906369
0.005909487957
0.006321637695
0.007190146755
0.008395296633
0.009841292699
0.01144892884
0.01315355572
0.0149038291
0.01665975021
0.01839093343
0.0200754726
0.02169814627
0.02325008119
0.02472542953
0.02612406419
0.02744539461
0.02869401778
0.02987395541
0.0309933279
0.03205965162
0.03307882796
0.03406050309
0.03500041731
0.0359234669
0.03681093747
0.03768858161
0.03854985926
0.03939958777
0.04024357866
0.04101149105
0.04148914965
0.04126291373
0.04101477032
0.04095578332
0.04108100849
0.04164386401
0.0428890085
0.04432799941
0.04582487137
0.04731436109
0.0487948759
0.05022017501
0.05168174703
0.05247253858
0.05380354518
0.09937875945
0.01300593605
0.01050153316
0.007002787005
0.005417911671
0.004707849684
0.004691891651
0.005304843731
0.00629629895
0.007510122227
0.008857443639
0.01028117914
0.01174024537
0.01320377548
0.01464878502
0.01605870099
0.01742220593
0.01873260264
0.01998613011
0.02118063363
0.02231632109
0.0233974362
0.02442783836
0.0254112041
0.02635292303
0.02725850762
0.02813322228
0.02898110241
0.02980618982
0.0306125283
0.03139822777
0.0321657471
0.03290099072
0.0336028249
0.03420926135
0.03460348186
0.03447132879
0.03426345204
0.03423236565
0.03434351774
0.03462611772
0.03553867811
0.03663889877
0.03780792472
0.0389784679
0.04016109633
0.04128883724
0.04257279933
0.04336295654
0.04239619283
0.08783445698
0.0129877584
0.01028593947
0.006645147892
0.005058409141
0.004322683377
0.00410409792
0.004497628502
0.005351033451
0.006466271011
0.007733808584
0.009092682891
0.01050330271
0.01193516466
0.01336302023
0.01476914213
0.01614088234
0.0174686508
0.01874637117
0.01997196315
0.02114515477
0.02226686094
0.02333977348
0.02436605271
0.02535070237
0.02629867416
0.02721476111
0.02810368534
0.02896669344
0.02980810439
0.0306248428
0.03141177109
0.03215619779
0.03283953039
0.03338864423
0.03354470203
0.03338996516
0.03318940585
0.03313375265
0.03320545769
0.03356796861
0.03426388157
0.03505454466
0.03587656597
0.03669371936
0.03752265794
0.03830034
0.03925984912
0.03992436156
0.0394833251
0.0857101942
0.0129874132
0.01023148149
0.006596728777
0.004975846773
0.00418954553
0.003937556035
0.00419606991
0.004935372471
0.005944063523
0.007108637462
0.008368100679
0.009686686339
0.01103534782
0.01239157839
0.01373728875
0.01505861774
0.0163459597
0.01759291859
0.01879539523
0.01995153035
0.02106099597
0.02212601867
0.02314866366
0.02413240469
0.02508310523
0.0260043078
0.02690119704
0.02776990257
0.02862048862
0.02944356459
0.03022797426
0.03096540713
0.03163733341
0.03219385133
0.03251903544
0.03242164965
0.03235808076
0.03237443408
0.03246806574
0.03285775487
0.03339290259
0.03397895822
0.03459364589
0.03521676135
0.03586963339
0.03649748297
0.03736500737
0.03794106292
0.03758368125
0.08439436306
0.01298730762
0.01021824183
0.006584399756
0.004959562551
0.004133340631
0.003848780974
0.004058685125
0.004750312456
0.005712865257
0.006833847402
0.00805237169
0.009332252323
0.01064591536
0.01197056214
0.013288291
0.01458563569
0.01585257153
0.01708208461
0.01826961722
0.01941296989
0.02051137076
0.02156596109
0.02257964013
0.02355531894
0.02449917617
0.02541344925
0.02630231194
0.0271689388
0.02800922716
0.02881873443
0.02959653229
0.03033120866
0.03100038949
0.03157073944
0.03199686903
0.03220972744
0.03215474258
0.03220073164
0.03242575668
0.03274074187
0.03301746533
0.03328363902
0.03370098764
0.03414327877
0.03464593538
0.03516923229
0.03597656043
0.03656696475
0.03624017632
0.08329011527
0.01298724175
0.0102156524
0.006581547096
0.004955176587
0.004126851901
0.003822928334
0.004001743032
0.004665838291
0.005595531953
0.006681841366
0.007864964391
0.009109333487
0.01038764997
0.01167731132
0.01296076322
0.01422471204
0.01545924644
0.01665742997
0.01781476814
0.01892894352
0.01999925857
0.0210262335
0.02201258821
0.02296215306
0.02387985638
0.0247692293
0.02563678701
0.02648477569
0.02731314709
0.02811758399
0.02889532915
0.02963720593
0.03031145092
0.03088447142
0.03134525541
0.03167392255
0.03187594421
0.0320531038
0.03223862919
0.03241964394
0.03246104182
0.03245796362
0.03270852676
0.03305320434
0.03348971782
0.03396706456
0.03472638365
0.03539356108
0.03503150044
0.08219795686
0.01298718426
0.01021513418
0.006580948299
0.004954216733
0.004125387574
0.00382089557
0.003978740081
0.004619733081
0.005530159673
0.006596940289
0.007760233278
0.008984997576
0.01024423525
0.01151538463
0.01278095434
0.01402754407
0.01524525133
0.01642683633
0.01756774417
0.01866525739
0.01971878174
0.02072877126
0.02169830154
0.0226295748
0.02352880292
0.02440133477
0.02525410232
0.0260933221
0.02693396673
0.02775906924
0.02856050739
0.02932050393
0.03000348003
0.03057689567
0.03103989555
0.03139905885
0.03168119838
0.03190117617
0.03205796785
0.03216436473
0.0321179962
0.03203327455
0.03215224333
0.03243857937
0.03282750272
0.03327039371
0.03400429046
0.03472029187
0.03436998013
0.08157612394
0.0129871253
0.01021502815
0.006580783725
0.004953950461
0.004124981118
0.003820328807
0.00397701314
0.004604002711
0.005495432398
0.006547405646
0.007694426622
0.008902192366
0.01014399015
0.0113974056
0.01264507229
0.01387359323
0.01507308335
0.01623609041
0.01735794953
0.01843553544
0.01946798669
0.02045584181
0.02140341071
0.02231444584
0.02319565617
0.02404985144
0.02488658407
0.02572204659
0.02656325102
0.02739459402
0.02820518854
0.02897256846
0.02965668725
0.03023221689
0.0306962389
0.03104902381
0.03130469524
0.03147770987
0.03156649953
0.03159822636
0.03151094946
0.03136861123
0.03146258789
0.03168791813
0.03202055002
0.03239570083
0.03304853057
0.03384282121
0.03334629284
0.08055686537
0.01298706713
0.01021493696
0.006580709988
0.004953880291
0.004124899079
0.003820211603
0.003975393447
0.004600955025
0.00547614834
0.006521449022
0.007661261227
0.00886223061
0.01009750232
0.01134456008
0.01258585923
0.01380793772
0.01500055718
0.01615602492
0.01726912096
0.01833680131
0.01935931413
0.02033797248
0.0212773348
0.02218092402
0.02305342117
0.02389925965
0.02473094031
0.02556069154
0.0263968112
0.02723123345
0.02804420904
0.02880747642
0.02948350952
0.0300342657
0.03046690217
0.03081559758
0.03111161272
0.03131069355
0.03135983172
0.03138830625
0.03131570973
0.03129031394
0.03141846669
0.03158050739
0.03186352387
0.03223278795
0.03286314947
0.03367169519
0.03321189183
0.08043395712
0.01298700875
0.01021489094
0.006580649314
0.004953807716
0.004124804374
0.003820090426
0.003974899569
0.004600223821
0.005475547399
0.006520654853
0.007659695956
0.008859592199
0.01009333051
0.01133851214
0.0125773271
0.01379624628
0.01498453006
0.01613426549
0.01724027446
0.01830031645
0.01931561953
0.02028579145
0.02121124456
0.0220945837
0.02294242623
0.0237611974
0.02457091525
0.02538560316
0.0262205624
0.02706149593
0.02789000153
0.02866730631
0.02936095429
0.02992210362
0.03033195234
0.03060033373
0.03073351135
0.03085057593
0.03090424067
0.03095592235
0.03099731507
0.03111096597
0.03125490867
0.03142522696
0.03171111834
0.03207994639
0.03258196378
0.03340316526
0.03260832379
0.07970173124
0.01298695709
0.01021483265
0.006580599703
0.004953761675
0.004124749754
0.00382001904
0.003973999211
0.004598635442
0.005473750611
0.006518410307
0.007657180754
0.008856994445
0.01009066121
0.01133578501
0.01257392558
0.01379181438
0.01497716225
0.01612342952
0.01722468371
0.01828135063
0.01928830647
0.02024522578
0.02114287321
0.02198914787
0.02278677929
0.02356172925
0.02432820454
0.02512277862
0.0259628244
0.02681790053
0.02765661232
0.02843555998
0.0291128738
0.02971458821
0.03027248633
0.03085131234
0.03117737953
0.03124647737
0.03150087414
0.0316394573
0.03173788513
0.03180089366
0.03189692419
0.03203367492
0.03228812739
0.03261845553
0.03326010793
0.03400944346
0.03357124393
0.08077061232
0.01298690789
0.01021480948
0.006580567581
0.004953724324
0.004124699522
0.003819953847
0.003973645382
0.004597979537
0.005473321154
0.006517810934
0.007656569129
0.008855679015
0.01008857618
0.011332347
0.01256886158
0.01378330466
0.01496493952
0.0161056925
0.01720255365
0.01824857283
0.01923798815
0.02015942541
0.0210093206
0.02177418057
0.0224716567
0.02311791906
0.02378181724
0.0245296857
0.0254113456
0.02636730403
0.02732957279
0.0282173412
0.02900121251
0.02953536862
0.0299891941
0.02879771998
0.02813776721
0.02791600545
0.02784311097
0.02800557502
0.02822443735
0.02844492012
0.02867044708
0.02890225262
0.02925964607
0.02968201715
0.03022686244
0.03106884932
0.03026983644
0.07745612064
0.01298686659
0.0102147517
0.006580518629
0.004953678238
0.004124652415
0.003819893646
0.003973168016
0.004597245052
0.005472658927
0.006516912327
0.007655197569
0.008854032005
0.0100865913
0.01132970892
0.01256487852
0.01377705949
0.01495480588
0.01609294498
0.01718402022
0.01821937129
0.01918175348
0.0200557925
0.02082007511
0.02145437078
0.02194992871
0.02239703368
0.02288821566
0.02344860513
0.02426266975
0.02520313691
0.02622165519
0.02713920427
0.02798695041
0.02868158864
0.02964435678
0.03077107372
0.0305349515
0.02897476909
0.02843339757
0.02863187821
0.02876273227
0.02875628577
0.02871737797
0.02887528682
0.02917965893
0.02956032093
0.03007006132
0.03088062199
0.03015467875
0.07738593092
0.01298683159
0.01021470986
0.006580478435
0.004953637131
0.004124609954
0.003819839732
0.003972923655
0.004596976789
0.005472687529
0.006516863273
0.007654934157
0.008853360709
0.01008529879
0.01132745647
0.01256100591
0.01376978204
0.01494292726
0.0160724921
0.01715395151
0.01817256372
0.01910030518
0.01990579776
0.02053886282
0.02100208636
0.02150635052
0.02205245094
0.02263872217
0.02308852692
0.02409636643
0.02508014498
0.02636350714
0.02756825316
0.02851491351
0.02931362086
0.02964805451
0.03203402644
0.03468714724
0.03461728117
0.03559949883
0.03658644362
0.03701148621
0.03693251187
0.03671592279
0.03650674599
0.03647877493
0.03649369421
0.03679796951
0.03703084145
0.03682095496
0.0836282722
0.0129868064
0.01021467521
0.006580448589
0.004953608807
0.004124583955
0.00381980541
0.003972697143
0.004596778488
0.005472624339
0.006516940511
0.007654780229
0.008852909903
0.01008446022
0.01132595799
0.01255826685
0.01376463383
0.0149331939
0.01605417899
0.01712151119
0.01811807885
0.01900436478
0.01972601822
0.02020717632
0.0207255069
0.02129774537
0.02194917851
0.02274049607
0.0221659074
0.02297589149
0.02217920902
0.02300173437
0.02434398633
0.02564667911
0.02641462775
0.02744716216
0.02879356845
0.02925021925
0.02885252699
0.03015805368
0.03120441185
0.0317980836
0.0318579047
0.03158939778
0.03109155699
0.03121960616
0.0314126081
0.03185693369
0.03252893615
0.03231534189
0.07968589278
0.01298679033
0.01021465631
0.006580430458
0.004953590629
0.004124565671
0.003819782891
0.003972597657
0.00459680064
0.005472759992
0.006517729251
0.007655603146
0.008853519361
0.01008471113
0.01132559301
0.01255686081
0.01376117717
0.01492651459
0.01604076091
0.01709434763
0.01807350487
0.01892070831
0.01957307144
0.02001763093
0.02057480295
0.02128387326
0.02217984292
0.02310463432
0.02355825281
0.02408117078
0.0230448024
0.02422634126
0.02689650558
0.02968233526
0.03063022464
0.0309866142
0.03027882519
0.02962754312
0.03011830151
0.03168668904
0.03322151031
0.03430388259
0.03486764654
0.03461257468
0.0339301178
0.03394965802
0.03396560206
0.03426367087
0.03480485789
0.03417371626
0.08122520895
0.01298678497
0.01021465083
0.006580425761
0.004953586156
0.004124561762
0.003819778155
0.003972558253
0.004596780944
0.005472696787
0.006517981658
0.007655905358
0.008853735418
0.01008478998
0.01132544501
0.01255644557
0.01375979272
0.01492434182
0.01603329007
0.01708363747
0.01804374934
0.01886695391
0.01944110755
0.01985192536
0.0204277041
0.02122823001
0.02194807304
0.02269242418
0.023724085
0.02321562402
0.0251632117
0.02985249761
0.03715548195
0.04411517134
0.04437508822
0.04396392299
0.04364574281
0.04181003353
0.04070817289
0.04046428382
0.04157814802
0.04283704027
0.04346765828
0.04338886066
0.04298755277
0.04313692844
0.04331251494
0.04374572399
0.04407659361
0.04368960239
0.08975932035
0.01298678981
0.01021466533
0.006580437064
0.004953595424
0.004124570025
0.003819787569
0.003972597744
0.00459673257
0.005472697368
0.006517430753
0.007655273691
0.008853207833
0.01008441254
0.01132530933
0.01255658913
0.01376092715
0.01492621445
0.0160405264
0.01709409203
0.01807327344
0.01892034041
0.01957260448
0.02001968615
0.0205764889
0.02128550017
0.02218169514
0.02310607241
0.0235565617
0.02470956254
0.02629441876
0.03458398129
0.04971168453
0.06502451485
0.06044518321
0.05691628342
0.05789252958
0.0514307446
0.04829260724
0.04629850639
0.04473166249
0.04400591623
0.04365218932
0.04280419932
0.04175324421
0.04143945446
0.04119591395
0.04126144471
0.04147654039
0.04036550763
0.08671504774
0.01298680534
0.01021468704
0.006580457375
0.004953615354
0.004124589778
0.003819812662
0.003972717164
0.004596745332
0.005472579094
0.006516798869
0.007654672
0.008852842378
0.01008442359
0.01132594865
0.01255827501
0.01376467095
0.01493321204
0.01605435646
0.01712172643
0.0181182218
0.01900453624
0.01972601989
0.02020749519
0.02072530699
0.02129601593
0.02194644214
0.02273941837
0.02217056621
0.0235097096
0.02808273955
0.04313686611
0.07018507331
0.127903146
0.111575043
0.09888225868
0.09225515199
0.07897951406
0.06794087313
0.06145436696
0.05751955033
0.05376241436
0.05095720837
0.04866379553
0.04668776549
0.0453941563
0.0444051062
0.04376374668
0.0436360466
0.04180755924
0.08857174842
0.01298683057
0.01021471921
0.006580485294
0.00495364443
0.004124618636
0.003819850645
0.003972941635
0.004596955584
0.0054726043
0.006516791172
0.007654906169
0.008853358419
0.01008531102
0.01132747842
0.01256103508
0.01376982208
0.01494298148
0.01607267225
0.01715400138
0.01817260803
0.01910045132
0.01990560257
0.02053841437
0.02100089293
0.02150213894
0.02204601665
0.02263534846
0.02338038407
0.02570809705
0.03305535854
0.05070184654
0.08442401882
0.1659075942
0.1764731773
0.170937251
0.1724968912
0.1667992054
0.1467346931
0.1370099585
0.1329594654
0.1289571991
0.1257432517
0.1235697784
0.1216532901
0.1200933139
0.1187351737
0.1176897527
0.1171644645
0.1099826706
0.1538532974
0.01298686466
0.01021476295
0.006580526751
0.004953686966
0.004124661625
0.00381990688
0.00397321129
0.004597287462
0.005472666199
0.006516991223
0.007655331277
0.008854197185
0.0100867796
0.01132990947
0.01256509426
0.01377727047
0.01495502502
0.01609318315
0.0171844557
0.01821953742
0.01918238981
0.02005607971
0.02082067339
0.02145578415
0.0219556088
0.02240624101
0.02289751021
0.02362546626
0.02566498148
0.03154458208
0.0463460604
0.07261847314
0.1295329373
0.1139252754
0.1010036261
0.09304711828
0.08081646553
0.06941824676
0.06188680589
0.05765513009
0.05472718029
0.05275108114
0.05126042065
0.05011905109
0.04928846224
0.0487892491
0.04873105148
0.04870636592
0.04732014418
0.09481621982
0.01298690594
0.01021481005
0.00658056825
0.004953726445
0.004124704718
0.003819963061
0.003973670205
0.004598051046
0.005473344095
0.006517865937
0.007656655282
0.008855779078
0.01008867708
0.01133244423
0.01256895478
0.01378339003
0.0149650324
0.01610576142
0.01720281032
0.01824880365
0.01923870293
0.02015997897
0.02101206037
0.02178563977
0.02249319697
0.02312960043
0.0238075718
0.02461547556
0.02616116576
0.02964144124
0.03811312611
0.05270637518
0.06711499423
0.06252914422
0.05809853576
0.05497636974
0.05043519173
0.0468745464
0.04428784691
0.04279684658
0.04169462307
0.04083131622
0.04016581508
0.03966238728
0.03937101509
0.03926278407
0.03941731746
0.03992353743
0.03875956862
0.08554719662
0.01298695383
0.01021482698
0.006580596419
0.004953760727
0.00412475422
0.003820029565
0.00397407312
0.004598790948
0.005473893483
0.006518609357
0.00765741746
0.008857249863
0.01009093061
0.01133607199
0.01257423647
0.01379212559
0.01497751789
0.01612369706
0.01722519447
0.01828204712
0.01928935303
0.02024685803
0.02115025019
0.02200846699
0.02281872573
0.02359707307
0.02436611863
0.02516465474
0.02619957664
0.02795508389
0.0316937585
0.0379854614
0.04372033246
0.04208187783
0.0404898499
0.03925210331
0.03765931936
0.03623192984
0.03550450552
0.03499156953
0.0346291475
0.03435007378
0.0341586709
0.0340455331
0.03414644421
0.03436014955
0.03473359175
0.03544798596
0.03436200511
0.08125361748
0.01298700558
0.01021488457
0.006580645968
0.004953807728
0.004124808967
0.003820100262
0.003974936249
0.004600298533
0.005475589854
0.006520740559
0.007659803635
0.008859699205
0.01009341575
0.01133859398
0.01257737809
0.01379627862
0.01498452676
0.01613426002
0.01724024373
0.01830043248
0.01931573329
0.02028668453
0.02121475134
0.02210323716
0.02295482317
0.02377442714
0.02458193528
0.02539565483
0.0262583582
0.02732757087
0.02895411995
0.03140527097
0.03370377148
0.03371898065
0.03326002407
0.03291224696
0.03254690191
0.03230627556
0.03220154459
0.03215697324
0.03212149511
0.03217724567
0.0322776549
0.03241761167
0.0326690864
0.03301053946
0.03357518433
0.03437332616
0.03372322846
0.08085661044
0.01298706292
0.01021492352
0.006580700042
0.004953874962
0.004124898093
0.003820216763
0.003975488925
0.004601138218
0.005476320477
0.006521705067
0.007661559422
0.008862569219
0.01009789293
0.01134502308
0.01258639706
0.01380856562
0.01500127964
0.01615684866
0.01727005483
0.01833786832
0.01936048197
0.02033917173
0.02127840956
0.02218234282
0.02305429107
0.02389931468
0.02472951063
0.02555983014
0.02639915169
0.02727443755
0.02823896982
0.02937646545
0.03043970737
0.03088304885
0.03080557971
0.03073817183
0.03072187054
0.0307566459
0.03081562295
0.03090814484
0.03089244693
0.03091606007
0.03108584428
0.0312846558
0.03160105492
0.03200092921
0.03263977296
0.03347316291
0.03302417179
0.08025273018
0.01298712094
0.01021500135
0.006580766888
0.004953942889
0.004124983378
0.003820342487
0.003977144012
0.004604143547
0.005495538151
0.006547572385
0.007694586777
0.008902293146
0.01014401965
0.01139736726
0.01264497377
0.01387344425
0.01507290115
0.0162358812
0.01735773852
0.01843534415
0.01946782246
0.02045566861
0.02140327224
0.0223144031
0.02319551662
0.0240491612
0.02488537718
0.02572052503
0.02656147284
0.02739542662
0.02822496493
0.02905575097
0.02981740603
0.03038736255
0.03077965003
0.03108883795
0.03133384033
0.03151522329
0.0316192275
0.03166969614
0.03158600415
0.03146233075
0.03159154657
0.0318521613
0.03223214432
0.03264971259
0.0333625871
0.03412953293
0.03373315237
0.08095785101
0.012987179
0.01021509378
0.006580919577
0.004954195445
0.004125373367
0.003820885852
0.003978552523
0.004619500581
0.005529990253
0.006596883036
0.007760243802
0.008985089588
0.01024444552
0.01151572971
0.01278145496
0.01402821692
0.01524612947
0.01642790472
0.01756899098
0.0186666144
0.01972016826
0.02073002341
0.02169901785
0.02262986641
0.02352824205
0.02439968729
0.02525145869
0.02608946406
0.02692961883
0.02775491544
0.02855858811
0.02932570274
0.03001626943
0.03058624583
0.03103557753
0.03137834073
0.03164320028
0.0318549487
0.03200888332
0.03211885779
0.03208222929
0.0320142375
0.03215559225
0.03246273666
0.03287803493
0.03334429756
0.03409952826
0.03480785007
0.0344891962
0.08168818892
0.01298723636
0.01021561932
0.006581525483
0.004955163715
0.004126847322
0.003822925119
0.00400190417
0.004666254346
0.005596122849
0.00668291404
0.007866085955
0.009110288642
0.01038844415
0.01167796944
0.01296130199
0.01422513123
0.0154595661
0.0166575725
0.01781465993
0.01892842027
0.01999825959
0.02102501635
0.02201124179
0.02296041119
0.02387730986
0.02476746837
0.02563420286
0.02648153029
0.02731014435
0.02811284424
0.02889120057
0.02963428124
0.03031091277
0.03088758573
0.03135314115
0.03169529379
0.03191136533
0.03209936179
0.03229356549
0.03248147517
0.03252933015
0.03253383964
0.03274516062
0.03309991482
0.03355502963
0.03405360437
0.03483804324
0.03549564137
0.03519127404
0.08236656996
0.01298730142
0.01021817129
0.006584344671
0.004959513382
0.004133280662
0.003848723452
0.004058435817
0.004749896457
0.00571223033
0.006832660051
0.008051212233
0.00933105612
0.0106448915
0.01196981254
0.01328784001
0.01458547375
0.01585259865
0.01708218571
0.01826975376
0.0194131242
0.02051179456
0.02156653042
0.02258072226
0.02355705904
0.02450024999
0.02541502273
0.02630467665
0.02717231756
0.02801184111
0.02882355405
0.02960109765
0.03033666151
0.03100702385
0.03157964566
0.03200931507
0.03222347987
0.03216891602
0.03221459177
0.03244040338
0.03275777912
0.03304093105
0.03331614034
0.03371762579
0.03416790117
0.03468772784
0.03522485878
0.03604752935
0.03663160747
0.03633156802
0.08337650004
0.01298740819
0.01023152555
0.00659676712
0.004975871297
0.004189572249
0.003937613525
0.004196910385
0.004936816656
0.005945850411
0.007110687292
0.008370286934
0.00968931136
0.011038228
0.01239521484
0.01374113604
0.01506246804
0.01634981018
0.01759674207
0.01879925952
0.01995562883
0.02106537187
0.02213066952
0.0231538437
0.02413806485
0.0250913089
0.02601008624
0.02690930781
0.02777765758
0.02862439601
0.02944843844
0.03023466541
0.03097424688
0.03165065168
0.03221344014
0.03254110766
0.03244214354
0.03237913341
0.03239687962
0.03249027509
0.03288784264
0.03343195642
0.03402752901
0.03465169874
0.03528495136
0.03595115257
0.03658984562
0.03746613108
0.03805966581
0.03772817643
0.08452756215
0.01298881493
0.01028658377
0.00664605106
0.00505908061
0.004323169493
0.004104447624
0.004497270486
0.00535021954
0.00646526043
0.007732759438
0.009091671242
0.01050242907
0.01193450832
0.01336199154
0.01476842692
0.01614031977
0.01746809786
0.01874600839
0.01997220656
0.02114580556
0.0222676163
0.02334063593
0.02436712068
0.02535150678
0.02630122924
0.02721724117
0.02810743301
0.02897172033
0.02980987279
0.030624747
0.03140766449
0.03215081619
0.03283705794
0.03339003086
0.03355073331
0.03339731757
0.03319827557
0.03314429573
0.03321672495
0.03358198808
0.03428141826
0.0350768276
0.03590515209
0.0367303181
0.03756799881
0.03835719185
0.03931841036
0.03998551985
0.03956782857
0.08577998515
0.013006958
0.01050253742
0.007004057121
0.005418955119
0.004708800915
0.004694829844
0.005308867245
0.006300972519
0.007515589595
0.008863680677
0.01028811927
0.01174789093
0.01321211572
0.01465778016
0.01606812515
0.01743251239
0.01874393995
0.01999847386
0.02119326786
0.0223295969
0.02341040452
0.02444101391
0.02542383882
0.02636616321
0.02727187454
0.02814734764
0.02899618402
0.02982277238
0.03062999504
0.03141755554
0.03218481724
0.03292098409
0.03362487803
0.03423324924
0.03463416996
0.03450009764
0.03429026514
0.03425827223
0.03436896587
0.03466146822
0.0355824015
0.03669146125
0.03787032306
0.03905031059
0.04024465742
0.04137232307
0.04267311725
0.0434895527
0.04256465892
0.08798161692
0.01309531578
0.009722206276
0.007202549046
0.006111857348
0.005903572982
0.006315780535
0.007184185424
0.008388937159
0.009834553021
0.01144188201
0.01314616525
0.01489605171
0.01665160175
0.01838235382
0.02006640094
0.02168878192
0.02324021757
0.02471579996
0.02611380344
0.02743558602
0.02868308358
0.02986265412
0.0309814116
0.03204808858
0.03306610877
0.03404970512
0.03499257382
0.03591524239
0.03680933852
0.0376828841
0.03854367538
0.03939159274
0.0402447698
0.0410122914
0.04149418991
0.04126823796
0.04102009252
0.04096194793
0.04108822386
0.04165428042
0.04290554646
0.04435131855
0.04585601284
0.04735399885
0.04884488692
0.05028100717
0.05176083378
0.05256132856
0.05389357776
0.09944795983
0.01361569873
0.008933449508
0.007385514166
0.00715754783
0.007792145936
0.009076135703
0.01084328162
0.01295058747
0.0152733686
0.01771203316
0.0201904592
0.02265267362
0.02505853934
0.02737867554
0.02959616676
0.03170355794
0.03369843744
0.03558130747
0.0373581527
0.0390387053
0.0406324055
0.04214986847
0.04360332171
0.04500345623
0.04636014506
0.04768542966
0.04899295954
0.05028401725
0.05158911871
0.0529459179
0.05453998055
0.05667899154
0.05951949791
0.06241487834
0.06334563359
0.06357197906
0.06397699727
0.06456832423
0.06537890708
0.06653780052
0.06818027735
0.07004824597
0.07203278025
0.07408400956
0.07620302227
0.07835436831
0.08062934813
0.08263577559
0.08608254559
0.1323398174
0.01307037526
0.007639181928
0.005131280789
0.004187125149
0.004034364569
0.004401930188
0.00514738705
0.006181193989
0.00743339962
0.00884552198
0.01036808922
0.01195876282
0.01358172766
0.01520759835
0.01681277231
0.01837856545
0.01989125795
0.02134083745
0.02272174721
0.02403035535
0.02526708142
0.02643208784
0.02752898456
0.0285610041
0.02953282116
0.03044755412
0.03132010915
0.03213797635
0.03300466214
0.0341304379
0.03609856973
0.03964787653
0.04517871498
0.05125427225
0.05119994815
0.04946574497
0.04783400588
0.04628573129
0.0450795331
0.04411860909
0.04341396558
0.04293536151
0.04263280385
0.04246872745
0.04241489614
0.04245454669
0.04258017373
0.04311193983
0.04398001779
0.08989926965
0.01226608048
0.007195075264
0.004661792964
0.003202016033
0.002346051207
0.001807972953
0.001450772575
0.001204017692
0.001028829083
0.0009023684114
0.0008104990977
0.0007440375503
0.0006967327541
0.0006641527382
0.0006430557914
0.0006310179724
0.000626127092
0.0006269136495
0.0006322380566
0.0006411357649
0.0006532107551
0.0006680539918
0.0006858288236
0.0007067948735
0.0007310967115
0.0007595597922
0.0007916085443
0.000828826623
0.0008709549529
0.0009253784794
0.001005756407
0.001140510286
0.001355948534
0.001608431274
0.001602157187
0.001568309836
0.001534935177
0.001505866877
0.001505214036
0.001525604234
0.001567006568
0.001626114464
0.001699303134
0.001781078591
0.001868374603
0.001958873862
0.002033160991
0.005029392826
0.004815944463
0.01147991792
0.01212328327
0.007184776734
0.004667307922
0.003212316912
0.002354590161
0.001811910356
0.001448630057
0.001194487389
0.001010491186
0.000873742635
0.0007701372916
0.0006906112183
0.0006291257768
0.0005815540966
0.0005449786855
0.0005173111798
0.0004969671962
0.0004829082205
0.0004742847503
0.0004706333042
0.0004715556778
0.0004768199594
0.0004863957176
0.000500316117
0.0005187200886
0.0005418341353
0.0005700039361
0.0006030932266
0.0006412025824
0.0006836565199
0.0007292970641
0.0007753090781
0.0008181939831
0.0008525054089
0.0008735421398
0.0008613220817
0.0008201059088
0.0008062418641
0.0008420418209
0.0009041098291
0.000981988486
0.001071998795
0.001172731116
0.001279809663
0.001392272657
0.0015105615
0.001626325132
0.00451587715
0.004314872386
0.007514348559
0.0121315276
0.00723554301
0.004716255679
0.003221078673
0.002360754858
0.001814526532
0.00144914158
0.001193725856
0.001009006499
0.0008719231114
0.0007682599308
0.0006889054448
0.0006277906062
0.0005807160472
0.0005447332261
0.0005177313622
0.0004981666536
0.0004848767488
0.0004770347751
0.0004740703868
0.000475640173
0.0004814973912
0.000491585142
0.0005060003044
0.000524971708
0.0005487174252
0.0005776166436
0.0006116625126
0.000650707332
0.0006941240437
0.0007395296145
0.0007834930542
0.0008209240566
0.0008451511021
0.00084661388
0.0008063995388
0.0007699702838
0.0007368036247
0.000724738695
0.0007444780874
0.0007811435021
0.0008286161665
0.0008838903376
0.0009439703058
0.001007948457
0.001078695218
0.001666917455
0.006927975027
0.006594615393
0.009466704063
0.01216893122
0.007321271191
0.004718669264
0.003204728965
0.002351239955
0.001807616037
0.001443185068
0.001188238406
0.00100350843
0.0008659829407
0.0007614821303
0.0006809357389
0.0006183059272
0.00056945288
0.0005314537181
0.0005022118762
0.0004802129448
0.0004643395482
0.0004537867587
0.0004479947682
0.0004465951357
0.0004494064655
0.0004563769741
0.0004675871907
0.0004833523123
0.0005037932105
0.0005294575083
0.0005600259608
0.0005954226954
0.0006340358797
0.0006745040775
0.0007127574653
0.0007431714125
0.0007596078244
0.0007560110298
0.0007242102289
0.0006927985389
0.0006644238277
0.0006450410406
0.0006425579272
0.0006529592397
0.0006739530663
0.0007041472167
0.0007409508178
0.0007868933763
0.00139131493
0.002326438605
0.007258689826
0.006844255867
0.009594306043
0.01216895767
0.007320530405
0.004718865784
0.003203426734
0.002350467786
0.001804192855
0.001440267146
0.001185657606
0.001001120435
0.0008637060901
0.0007592903841
0.0006788148074
0.0006162609555
0.0005674878717
0.0005295714539
0.0005004140541
0.0004784900892
0.000462669304
0.0004521126433
0.0004462303622
0.0004446316145
0.0004471125925
0.0004536486023
0.0004643699339
0.0004795792258
0.0004993585735
0.0005244134549
0.0005543558929
0.0005437908056
0.0005858901876
0.0007328771836
0.0008320622321
0.0008539486664
0.0008567240396
0.0008453520191
0.0008089178957
0.0007729709728
0.0007403348516
0.0007109466456
0.0006841475305
0.0006561794305
0.000631370608
0.0006315066465
0.0006947946351
0.0009484419738
0.002001013361