/*--------------------------------*- C++ -*----------------------------------*\
| =========                 |                                                 |
| \\      /  F ield         | OpenFOAM: The Open Source CFD Toolbox           |
|  \\    /   O peration     | Version:  2.2.1                                 |
|   \\  /    A nd           | Web:      www.OpenFOAM.org                      |
|    \\/     M anipulation  |                                                 |
\*---------------------------------------------------------------------------*/
FoamFile
{
    version     2.0;
    format      ascii;
    class       volScalarField;
    location    "9";
    object      nut;
}
// * * * * * * * * * * * * * * * * * * * * * * * * * * * * * * * * * * * * * //

dimensions      [0 2 -1 0 0 0 0];

internalField   nonuniform List<scalar> 
86889
(
0.0001421796518
0.0001448195249
0.0001846334905
0.0002644864192
0.0004024963183
0.0006076420021
0.0008683321969
0.001162211944
0.001469638738
0.001778829352
0.002084201243
0.002383372215
0.002675311836
0.002959510949
0.003235880263
0.003504533419
0.003765711925
0.004019726265
0.004267050451
0.004508246794
0.004743882069
0.004974658445
0.00520123959
0.005424355229
0.00564477786
0.005863325945
0.00608092009
0.006298235682
0.00651622472
0.006735745964
0.006956159865
0.007179173922
0.007408315197
0.007650053912
0.007900287873
0.00816353691
0.008439116984
0.008731551858
0.009039237251
0.009354186749
0.009668651489
0.009987837732
0.01031478008
0.01065168806
0.0109988185
0.01135855721
0.01172474139
0.01215118728
0.01244956826
0.01243526328
0.0001394738022
0.0001692663226
0.0001772317596
0.0002083889225
0.0002740464702
0.0003853838619
0.0005444522507
0.0007412988132
0.0009606821464
0.00118991347
0.001421295282
0.001650922327
0.001876922446
0.002098345054
0.002314664657
0.002525552335
0.002730837155
0.002930394621
0.003124257489
0.003312442754
0.003495117875
0.003672477007
0.003844875393
0.00401269281
0.004176322838
0.00433626268
0.004492761756
0.004646491294
0.004797600364
0.004946667743
0.005094001232
0.005240065123
0.00538497833
0.005528593874
0.00566909417
0.005813291485
0.005974629417
0.006166539384
0.006370986205
0.006581135506
0.006793880843
0.007009536802
0.007228956549
0.007452111275
0.007678787372
0.007908841671
0.008142489622
0.008379950136
0.008400733153
0.009712286369
0.0001388967473
0.0001924378462
0.0001708948845
0.0001737605192
0.000197534565
0.0002582126225
0.000373583118
0.000531739878
0.0007145764164
0.0009083111952
0.001105062925
0.001300897153
0.001493944574
0.001683300678
0.001868496997
0.002049275532
0.002225513068
0.002397154439
0.002564185428
0.00272665011
0.00288473827
0.003038657627
0.003188621373
0.003334892675
0.003477753899
0.003617527685
0.003754527303
0.003889087151
0.004021523214
0.004152088477
0.004281013827
0.004408426001
0.004534242966
0.004658458568
0.004779926728
0.004903225659
0.005036264457
0.0051994247
0.005371895355
0.005546203985
0.005721222284
0.005896791419
0.006074033519
0.006253255478
0.006434528643
0.006617904004
0.00680481305
0.007005586867
0.006661939019
0.008299086941
0.0001387576837
0.0001858749699
0.0001597087696
0.0001592210804
0.0001774334898
0.0002182356866
0.0003092972405
0.0004525838799
0.0006293632198
0.0008228780725
0.001023043042
0.001224667989
0.001425109123
0.00162290748
0.00181732641
0.002007943094
0.002194444902
0.002376639491
0.002554475088
0.002727962091
0.002897152994
0.003062169224
0.00322314068
0.00338030007
0.003533911118
0.003684254604
0.003831640972
0.003976311235
0.004118575678
0.004258588682
0.004396412576
0.004531903525
0.004664724649
0.004793880491
0.004917522675
0.005039074268
0.00514904241
0.00527518751
0.005409990827
0.005541320743
0.005667791095
0.005794135558
0.005921987709
0.006051900694
0.006183808069
0.006318435326
0.006456048713
0.006621384476
0.006310764366
0.007984441642
0.0001387562268
0.0001842279092
0.0001579882872
0.0001558517213
0.0001706222376
0.0002074637746
0.0002851650584
0.0004169049413
0.000585228554
0.000773167503
0.0009697636588
0.001169274963
0.001368569491
0.001566033907
0.001760757558
0.001952190709
0.002140007541
0.00232400475
0.002504049834
0.002680083102
0.002852098737
0.003020189317
0.003184462046
0.003345087688
0.003502346169
0.00365647611
0.003807789445
0.003956377508
0.004102640348
0.004246585162
0.004388069778
0.004526891737
0.004662600267
0.004794354281
0.004920936062
0.005043238032
0.005158566715
0.005275865352
0.00539431046
0.005505485795
0.005613064933
0.005719837979
0.005827029121
0.005935286746
0.006044435964
0.006157974464
0.006277048619
0.006432775959
0.006117091947
0.007794619103
0.0001387546978
0.0001838300404
0.0001575197197
0.0001551055605
0.0001677797425
0.0002017302843
0.000274067083
0.0004002856533
0.0005639854501
0.0007485229352
0.0009426720821
0.001140327564
0.001338231224
0.001534607221
0.001728481347
0.00191929221
0.002106678962
0.002290401498
0.002470300845
0.002646297768
0.002818361059
0.002986534428
0.003150942067
0.003311732481
0.003469192436
0.003623517046
0.003774987674
0.0039238569
0.004070160698
0.004213688026
0.004354967726
0.004494358215
0.004630930136
0.004763489349
0.004891277123
0.005014051211
0.005129701715
0.005241762313
0.005350578366
0.005456957811
0.005548018101
0.005629892558
0.005729682928
0.005828956275
0.005928332466
0.006033955225
0.006145668564
0.006294560425
0.005976589213
0.007657149511
0.0001387541021
0.0001837548884
0.000157411794
0.0001549074026
0.0001674299127
0.0002001033726
0.0002695404964
0.0003924508704
0.0005523151501
0.0007330663064
0.0009235940685
0.001117767959
0.001312271745
0.001505290188
0.001695842431
0.001883364896
0.002067498583
0.002248009208
0.002424743348
0.002597620022
0.002766611141
0.002931735682
0.003093102525
0.003250885381
0.003405325657
0.003556652062
0.003705216592
0.003851279312
0.003995137114
0.004137155773
0.004277558585
0.004417081768
0.004554235203
0.004687299232
0.004815898379
0.00493872343
0.005053404858
0.005163925227
0.005272192098
0.005378232669
0.005454599655
0.005512004678
0.005601263589
0.00569906633
0.005796944748
0.005901830085
0.006010896106
0.006154339188
0.005839151078
0.007529364713
0.0001387536915
0.0001837402327
0.0001573880658
0.000154861715
0.0001673467903
0.0001999673525
0.0002676901253
0.0003879944035
0.0005452625539
0.0007233677996
0.0009112613519
0.001102861168
0.001294861197
0.00148543747
0.001673606462
0.001858794197
0.002040639485
0.002218890284
0.002393386852
0.002564026769
0.002730780068
0.002893656281
0.003052769237
0.003208230156
0.003360299884
0.003509263497
0.00365548688
0.00379952247
0.003942806595
0.004085603708
0.004227292377
0.004368137239
0.00450644417
0.004640391432
0.004769721171
0.004893385111
0.005009974898
0.005121811528
0.005230358214
0.005336110358
0.005412030988
0.005468145781
0.005545895837
0.005643299573
0.005740139291
0.005843967951
0.005950410824
0.006089675048
0.005772498789
0.007461207228
0.0001387532751
0.0001837390749
0.0001573845776
0.0001548538969
0.0001673313573
0.000199941037
0.0002675625733
0.000386500303
0.0005414921606
0.0007176059702
0.0009033552278
0.001092751235
0.001282516358
0.001470835656
0.001656733627
0.001839636754
0.002019185723
0.002195117974
0.002367270362
0.002535517971
0.002699817273
0.002860173796
0.003016772826
0.003169989485
0.003320115312
0.003467164357
0.003611463768
0.003754003315
0.003896618634
0.004038934871
0.004180323579
0.004320926918
0.004458890466
0.004592530063
0.004721483998
0.004844683495
0.004960541314
0.005071115195
0.005177851329
0.005281604144
0.005354889447
0.005408753671
0.005492437523
0.005590288963
0.005685955719
0.005789103157
0.005893132086
0.00602514744
0.005700282959
0.007359862768
0.000138752873
0.0001837375173
0.0001573828515
0.0001548516169
0.0001673276845
0.000199934236
0.0002674161905
0.0003861897095
0.0005393397056
0.000714505889
0.0008992555243
0.001087693827
0.00127653404
0.001463954298
0.001648967612
0.001830996054
0.002009660405
0.00218467925
0.002355859778
0.002523075672
0.002686354386
0.002845936061
0.0030020422
0.003154991296
0.003305116864
0.003452180701
0.003596447246
0.003738686929
0.003880292717
0.004021804093
0.004162476172
0.00430233376
0.004439513668
0.004572051131
0.004699704024
0.004821022598
0.004936503722
0.005046087646
0.005151433654
0.00525286262
0.005326153056
0.005398188615
0.00548874367
0.005577879706
0.005676696913
0.005779628899
0.005883730905
0.006014713165
0.00568656373
0.007347354295
0.0001387524651
0.0001837378281
0.0001573828007
0.0001548513911
0.0001673269981
0.0001999330121
0.0002673837223
0.0003861354341
0.0005393050092
0.0007144659868
0.0008991637364
0.001087530261
0.001276266463
0.001463560402
0.001648410704
0.001830238606
0.002008639559
0.002183312697
0.002354059166
0.002520855589
0.002683940538
0.002843630009
0.002999896802
0.003152560704
0.003302183635
0.003448786142
0.003592671171
0.003734262449
0.003874591463
0.004014469919
0.004153683224
0.004292188378
0.004428588785
0.004561187649
0.004689397095
0.004804644882
0.004901897439
0.004999952533
0.005103821487
0.005202076198
0.005288691888
0.005379450233
0.005468138829
0.005555031373
0.005655504667
0.005758036123
0.005867486923
0.005995603462
0.005663618129
0.007287875356
0.0001387521071
0.0001837372807
0.0001573821904
0.0001548507572
0.0001673259026
0.000199930986
0.0002673057752
0.000385978814
0.0005391170459
0.0007142304215
0.0008989045097
0.001087271059
0.001276016465
0.001463330847
0.001648173433
0.001829979487
0.002008257564
0.002182775983
0.00235333027
0.002520277947
0.002683630285
0.002843449714
0.002999399682
0.00315131448
0.003299396588
0.003444816639
0.003587565095
0.003728076004
0.003867524969
0.004006242813
0.004144176828
0.004280903878
0.004415960018
0.004551589805
0.004687169135
0.004798608559
0.004863417082
0.004911380567
0.005020658346
0.005132284099
0.005243636572
0.0053487056
0.005450346415
0.005548904374
0.005653838935
0.005760525099
0.005867729493
0.006003842841
0.00568687364
0.007378939766
0.0001387517655
0.0001837378982
0.0001573825377
0.0001548511151
0.0001673260882
0.0001999311305
0.0002672814893
0.0003859249505
0.0005390895111
0.0007141962981
0.0008988835156
0.001087211394
0.001275918208
0.001463159558
0.001647914957
0.001829530275
0.002007593744
0.002181814885
0.002352313907
0.002519277958
0.002682387335
0.002841231893
0.002995624963
0.003145368887
0.003290063843
0.003430292285
0.003568041518
0.003704085596
0.003840561259
0.003978272982
0.00411741147
0.004257067626
0.004397960977
0.00454221287
0.004694617601
0.004574688241
0.004536573592
0.004537121315
0.004568957587
0.004663844252
0.004762480039
0.004856628097
0.004947295422
0.005035048091
0.005140315174
0.005246938717
0.005360358572
0.005491457061
0.005223961191
0.00700237741
0.000138751479
0.0001837371617
0.0001573818376
0.000154850386
0.0001673253045
0.0001999297725
0.0002672424722
0.0003858570214
0.0005390276867
0.0007141153691
0.0008987669375
0.001087081418
0.001275777144
0.001462992884
0.001647686055
0.00182918834
0.002007050212
0.002181149645
0.002351811233
0.002518917591
0.002681511942
0.002838920628
0.002990705927
0.003136038892
0.003274405913
0.003407593608
0.003538107864
0.003661310336
0.003787804233
0.003916306263
0.004047603336
0.004182390315
0.004325506746
0.004487852042
0.004669460974
0.004695303984
0.004627755234
0.004442322384
0.004423251864
0.004538639802
0.004654190854
0.004737079923
0.004806305402
0.00490180301
0.005015056556
0.005128834311
0.005248538743
0.005384786939
0.005128559575
0.006974048012
0.0001387512359
0.0001837368311
0.0001573814766
0.000154849988
0.0001673250345
0.0001999292289
0.0002672256059
0.0003858385404
0.0005390436186
0.0007141330963
0.0008987773822
0.001087072686
0.001275737671
0.001462904089
0.001647510052
0.001828820746
0.002006415986
0.002180050278
0.002350469949
0.002517152922
0.002678894007
0.002834411756
0.002981847881
0.003121165089
0.003257533369
0.00339234236
0.003526387515
0.003633296377
0.003762700862
0.003853876374
0.003994536251
0.004142810298
0.004301848714
0.00448879892
0.004591528423
0.004817079423
0.004939745933
0.004479032367
0.004632369622
0.004865111561
0.005063278696
0.005190580739
0.005301984603
0.005418138216
0.005551877471
0.005681852787
0.005820614445
0.005978629947
0.005796143366
0.007658267986
0.0001387510611
0.0001837364034
0.0001573810732
0.000154849552
0.0001673246825
0.000199928541
0.0002672078306
0.000385823038
0.0005390439646
0.000714152831
0.0008987852577
0.001087066336
0.001275713881
0.001462848149
0.001647388716
0.001828566287
0.002005903341
0.002179059734
0.002348780111
0.002514421468
0.002674839272
0.00282796564
0.002970366463
0.003109344089
0.003247938623
0.003389202156
0.003539513881
0.003471246025
0.003617660731
0.003502974742
0.003594405419
0.00373127544
0.003881143565
0.004047440329
0.004233567851
0.004300004363
0.004308282875
0.004220458958
0.004390774701
0.004568470194
0.004734206979
0.004852245512
0.004929661526
0.00496803575
0.005093991473
0.005220229486
0.005351852637
0.005503344499
0.005286780766
0.007191401423
0.0001387509494
0.0001837362583
0.0001573809119
0.0001548493784
0.0001673245669
0.0001999283463
0.0002672011149
0.0003858292174
0.0005390649179
0.0007142435633
0.0008988908475
0.001087167329
0.00127580062
0.001462904142
0.001647387703
0.001828447564
0.002005596623
0.002178370352
0.002347334516
0.002511997224
0.002670779017
0.002821283
0.002954913985
0.003094619099
0.003242301768
0.00340680828
0.003561648556
0.003641078219
0.003668330182
0.003469520659
0.00356451768
0.003766604114
0.003999425985
0.004181970251
0.004349281782
0.004307539841
0.004344705594
0.004472138975
0.004644350168
0.004829705843
0.005010527519
0.005177742617
0.005256168828
0.005284053859
0.005414649082
0.005544955506
0.005682106881
0.005839433054
0.005603232637
0.007409136809
0.0001387509123
0.0001837362118
0.0001573808642
0.0001548493227
0.0001673245425
0.0001999283081
0.000267197988
0.0003858279743
0.0005390595784
0.0007142699648
0.0008989253804
0.001087199011
0.001275825912
0.001462917138
0.001647386118
0.001828389742
0.002005488868
0.002177978786
0.002346718999
0.00251046425
0.002667999129
0.002815452248
0.002941557224
0.003081117104
0.003234905953
0.003364884537
0.003497102045
0.003666738715
0.003607436076
0.003290273802
0.003669248314
0.004257718075
0.004850024034
0.005076785606
0.005252111214
0.005417585547
0.005475827577
0.005606063207
0.005761393145
0.005955026285
0.006156917983
0.006341067411
0.006442720504
0.006503246758
0.006641155996
0.006775142085
0.006919053436
0.007084134284
0.006860760692
0.00846202654
0.0001387509456
0.0001837365226
0.0001573811392
0.0001548495754
0.0001673247705
0.0001999286064
0.0002672009664
0.0003858220062
0.0005390574496
0.0007142120712
0.0008988540048
0.001087129435
0.001275761528
0.001462864186
0.001647346858
0.001828406494
0.002005551382
0.002178326391
0.002347288028
0.00251194956
0.002670724192
0.002821220379
0.002955219706
0.00309491231
0.003242555126
0.003407049571
0.003561812103
0.003640503332
0.003679389126
0.003579600041
0.004086159796
0.005097574431
0.006085270625
0.006138996277
0.006209541238
0.006367071559
0.006043156663
0.006041238652
0.006153135922
0.006281916415
0.0064228773
0.006577516555
0.006641921312
0.006664805
0.006785015616
0.0069043165
0.007029811029
0.007180617824
0.006830566551
0.008222894676
0.0001387510537
0.0001837367772
0.0001573814026
0.0001548498562
0.0001673249963
0.0001999289997
0.0002672095109
0.0003858193928
0.00053903847
0.0007141370038
0.0008987708025
0.001087053794
0.001275702434
0.001462837417
0.001647377856
0.001828555643
0.002005889907
0.002179051908
0.002348772898
0.002514408278
0.002674822818
0.002827936435
0.002970346297
0.003109306239
0.003247731093
0.003388820677
0.00353912698
0.003470998914
0.003619487265
0.003676278173
0.004610588386
0.006229614173
0.008258167022
0.008102161291
0.007984782404
0.007816076093
0.00733787598
0.006911363389
0.00684926322
0.006985498565
0.007054852819
0.007168487751
0.007276183379
0.007356263524
0.007483049705
0.007593898313
0.007707397065
0.007831407021
0.007402350097
0.008566286544
0.0001387512288
0.0001837371188
0.0001573817041
0.0001548502454
0.0001673253479
0.0001999297307
0.0002672267758
0.0003858356231
0.0005390335557
0.0007141227441
0.0008987696112
0.001087065734
0.001275730399
0.001462895776
0.001647500065
0.001828808667
0.002006401508
0.002180038194
0.002350447278
0.002517122953
0.00267886327
0.00283436353
0.002981780002
0.003121031577
0.003257126401
0.003391552041
0.003525687188
0.003634002142
0.003786248684
0.004154609695
0.005246741595
0.007062067848
0.008281884319
0.09493682291
0.08977925666
0.06659180741
0.06388614473
0.05269260786
0.04833090806
0.04697937918
0.04550351592
0.04394113871
0.04269056101
0.04150276757
0.04040912569
0.03935272255
0.03835124392
0.0374356699
0.03285165613
0.02061876061
0.0001387514654
0.000183737533
0.0001573821415
0.0001548507531
0.0001673257604
0.0001999305637
0.0002672460851
0.0003858607443
0.0005390275666
0.0007141213922
0.0008987771365
0.001087093317
0.001275789526
0.001463004311
0.001647695912
0.001829194565
0.002007052351
0.00218114723
0.002351811406
0.002518899862
0.002681502935
0.002838893852
0.002990671569
0.003136015789
0.003274592415
0.003408118862
0.003538613993
0.003662395947
0.003807413325
0.004113565551
0.005008242877
0.006538606272
0.008434520525
0.00836916685
0.008287717422
0.008414010512
0.008021006221
0.007510532255
0.007261290012
0.007293901527
0.007392722222
0.007527951477
0.007664038403
0.007794984508
0.007919645572
0.008056641164
0.008207521691
0.008384541999
0.007965014793
0.009166443198
0.0001387517517
0.000183737942
0.000157382575
0.0001548511957
0.0001673263149
0.000199931611
0.0002672833378
0.0003859314578
0.0005390909079
0.0007141998278
0.0008988885842
0.001087216001
0.001275920711
0.001463158904
0.001647910259
0.001829520284
0.002007578048
0.002181790603
0.002352289734
0.002519244502
0.002682364114
0.002841195521
0.002995650773
0.003145813039
0.003291832834
0.003431520639
0.003569498088
0.003706446242
0.003855909147
0.004075248758
0.00457871377
0.005509982364
0.006401211736
0.006449628221
0.006451339283
0.006539555981
0.006396602064
0.006310705378
0.006297777112
0.006390824286
0.006498062003
0.006602687445
0.006703722605
0.006800620766
0.006905953328
0.007011258909
0.007119451419
0.007248682091
0.006832500058
0.008089650223
0.0001387520843
0.0001837371595
0.0001573821162
0.0001548507661
0.0001673261613
0.0001999316353
0.0002673122067
0.0003859940616
0.0005391315922
0.0007142500892
0.0008989267461
0.001087293397
0.00127603763
0.001463350119
0.001648190088
0.001829990885
0.002008264634
0.002182770756
0.002353326055
0.002520273277
0.00268362979
0.00284346397
0.002999641296
0.003152376096
0.003302279537
0.003448673714
0.003591518306
0.003732127084
0.003875550593
0.004037444292
0.004279507477
0.004685444554
0.005118678169
0.005233843666
0.005320649734
0.005421948106
0.005442808427
0.005454686144
0.005542848632
0.00563755536
0.005731960249
0.005818492035
0.005900927443
0.005980435174
0.00608322674
0.00618695027
0.006296932516
0.006423945393
0.006057829476
0.007528579779
0.0001387524431
0.0001837376601
0.0001573826713
0.0001548513443
0.0001673271335
0.0001999334387
0.0002673864597
0.0003861419163
0.0005393078355
0.000714471818
0.0008991699991
0.001087534343
0.001276265809
0.001463555878
0.001648400056
0.001830220101
0.002008609305
0.002183270392
0.002354003821
0.002520794613
0.002683866236
0.00284356754
0.002999940182
0.003153022918
0.003303300777
0.003450237258
0.003594070705
0.003735587572
0.003876437632
0.004021382191
0.004182282954
0.004378667402
0.004589737923
0.004733895519
0.004855835311
0.004974573387
0.005072538001
0.00517290348
0.005278872707
0.005379588545
0.005468469447
0.00556172498
0.005652967779
0.005742765707
0.005843280085
0.00594627163
0.006052032824
0.006183436992
0.00583961369
0.007425871831
0.0001387528436
0.0001837372007
0.0001573825883
0.000154851437
0.0001673277002
0.0001999345822
0.0002674247251
0.0003862079021
0.0005393574638
0.0007145314279
0.0008992839637
0.001087723784
0.001276565424
0.00146398771
0.001649002185
0.001831031399
0.00200969549
0.00218471239
0.002355889542
0.002523100787
0.002686370695
0.002845936948
0.003002018397
0.003154955288
0.003305044965
0.003452056144
0.00359623448
0.003738412064
0.003880010198
0.004022350076
0.004166657612
0.004316310769
0.004466728747
0.004604074354
0.004729838321
0.004845670431
0.004955539435
0.005059241245
0.005158668074
0.005253953566
0.005322213961
0.005390274487
0.005477772743
0.005564650167
0.005662366687
0.00576463419
0.005869008387
0.006000085637
0.005672724059
0.007329860065
0.0001387532451
0.0001837383013
0.0001573839539
0.0001548534569
0.0001673312005
0.000199941479
0.0002675735008
0.0003865130765
0.0005415012583
0.0007176197661
0.0009033666246
0.001092754754
0.001282509986
0.001470818291
0.001656704379
0.001839594683
0.002019130186
0.002195047384
0.002367183635
0.00253541406
0.00269969405
0.002860026646
0.003016600058
0.003169789494
0.003319879152
0.003466870006
0.003611100631
0.003753562197
0.003896087857
0.00403836432
0.004180065377
0.004322025313
0.004462104496
0.004596773761
0.004725652388
0.004849111524
0.00496530925
0.005076098193
0.005182959357
0.00528685039
0.005360940238
0.005415122103
0.005499084846
0.005596192479
0.005691129038
0.005794183634
0.005898668333
0.006034850189
0.005715240462
0.0073960146
0.0001387536553
0.0001837391154
0.0001573871489
0.0001548609211
0.0001673461466
0.0001999667534
0.0002676728096
0.0003879691612
0.0005452400994
0.0007233530525
0.0009112496051
0.001102852672
0.00129485795
0.001485439763
0.001673614717
0.001858808287
0.002040659873
0.002218914534
0.002393412252
0.002564047606
0.002730789654
0.002893643807
0.003052713578
0.003208123839
0.003360119745
0.003508986036
0.003655100331
0.003799005548
0.003942162464
0.004084837237
0.00422644961
0.004367325362
0.00450570155
0.004639596966
0.004768759079
0.004891768276
0.005007697686
0.005119061684
0.00522732626
0.005332865324
0.005408630903
0.005464714376
0.005542716748
0.00563994375
0.005736600416
0.005840309306
0.005947094233
0.006087838154
0.005773962771
0.007470666685
0.0001387540649
0.0001837539254
0.0001574109853
0.0001549066954
0.0001674293795
0.0002001027065
0.0002695545533
0.0003924921179
0.000552376997
0.0007331777989
0.0009237137796
0.001117875754
0.001312365599
0.001505369341
0.001695905415
0.001883409237
0.002067522624
0.002248006116
0.002424705722
0.002597536158
0.002766472394
0.002931546489
0.003092862562
0.003250581931
0.003404937573
0.003556215863
0.003704691982
0.003850656211
0.003994429756
0.004136319642
0.00427662315
0.004416057742
0.004553139947
0.004686168679
0.004814748852
0.004938051755
0.00505335046
0.005164481659
0.005273309292
0.005379850691
0.0054566649
0.005514551537
0.005595454352
0.005693249097
0.005791352044
0.005896499472
0.006006192454
0.006151221108
0.005840196374
0.007542447214
0.0001387546549
0.000183828067
0.0001575179593
0.0001551036602
0.0001677767996
0.0002017265009
0.0002740441294
0.000400241399
0.0005639127856
0.0007483888658
0.0009425289246
0.001140170467
0.001338075988
0.001534461305
0.001728346831
0.001919168751
0.002106560302
0.002290279744
0.002470170876
0.002646155231
0.002818212833
0.002986374494
0.003150780789
0.003311575549
0.003468993776
0.003623298694
0.003774753938
0.003923615648
0.004069858083
0.00421338273
0.004354630798
0.004493998822
0.004630541979
0.004763078052
0.004890857551
0.005013618853
0.005129382017
0.005241593935
0.005350565897
0.005457141554
0.005548464885
0.005630693961
0.005725974171
0.00582506976
0.005924490707
0.006030414155
0.006142693762
0.006292500361
0.005977385754
0.007664007966
0.0001387561937
0.0001842291805
0.0001579894937
0.0001558526578
0.0001706233851
0.0002074670623
0.000285241115
0.0004170519714
0.0005854226616
0.0007733972692
0.0009700140818
0.001169566502
0.001368886815
0.001566408238
0.001761156041
0.001952597664
0.002140417559
0.002324410919
0.002504450238
0.002680481777
0.002852495818
0.003020582232
0.003184857426
0.003345484117
0.003502804476
0.003656871975
0.003808211233
0.003956779429
0.004102914587
0.004246789665
0.004388237006
0.004527043741
0.00466278186
0.004794619835
0.004921262703
0.005043570257
0.005159181642
0.005276847484
0.005395342869
0.005506420667
0.005613978948
0.005720811461
0.005828114753
0.005936577905
0.006046019535
0.0061600359
0.006279899678
0.006436007046
0.00612309192
0.00780659974
0.0001387698877
0.0001858853393
0.000159732593
0.0001592433379
0.0001774523242
0.0002182499039
0.0003092502017
0.0004524860695
0.0006292377471
0.000822740726
0.001022900931
0.001224528892
0.001424978649
0.00162274833
0.001817174173
0.002007789988
0.002194282784
0.002376474255
0.002554324244
0.002727819598
0.002897006831
0.003062014312
0.003222975575
0.003380106346
0.00353373986
0.00368407011
0.003831464797
0.003976151007
0.004118331816
0.004258244797
0.00439589287
0.004531207322
0.004663906808
0.004792994409
0.004916611494
0.005038315551
0.005148469336
0.005274830808
0.005409700965
0.005541066197
0.005667607848
0.005794062632
0.005922069171
0.006052181375
0.00618432183
0.006319213072
0.006457334348
0.006623044166
0.006315444305
0.007991119621
0.0001389085654
0.0001924589279
0.0001709281947
0.0001737955152
0.0001975754639
0.0002584197062
0.0003739219849
0.0005321762651
0.0007151133688
0.000908937279
0.001105765713
0.001301670847
0.001494783671
0.001684199001
0.001869439356
0.00205027661
0.002226578149
0.002398283227
0.002565350555
0.002727855189
0.002885961706
0.003039898785
0.003189852728
0.003336125084
0.003478981565
0.003618753645
0.0037557594
0.003890332625
0.0040227857
0.004153380554
0.004282315378
0.004409730099
0.004535548952
0.004659760129
0.004781238458
0.004904563809
0.005037554475
0.005200756714
0.005373283526
0.005547733795
0.005722978283
0.005898887737
0.006076562425
0.00625631532
0.006438215228
0.006622214031
0.006809796643
0.007011253316
0.00667321997
0.008313652511
0.0001394739058
0.0001692664938
0.0001772194565
0.0002081739539
0.0002736498398
0.000384911283
0.0005438998845
0.0007406553119
0.0009599622203
0.001189132973
0.001420458319
0.001650029873
0.001875977052
0.002097343802
0.002313602674
0.0025244364
0.002729656589
0.002929173325
0.003122965837
0.003311109987
0.003493680916
0.003670943998
0.003843264465
0.004011020891
0.004174555946
0.004334448572
0.004490939687
0.004644638809
0.004795814318
0.004944875809
0.005092172432
0.005238157489
0.005383080108
0.005526754666
0.005667270199
0.005811488071
0.005972814144
0.006164784427
0.006369316163
0.006579551087
0.006792449744
0.007008354866
0.00722810783
0.007451689745
0.007678881111
0.007909610332
0.008143788862
0.008381719578
0.008403278934
0.009718241769
0.0001421796078
0.0001448178819
0.0001846338952
0.0002645252896
0.0004026613333
0.0006079496316
0.00086870366
0.001162592008
0.001470003609
0.001779162191
0.002084489292
0.00238360309
0.002675475676
0.002959605489
0.003235899856
0.003504479358
0.003765573613
0.004019489444
0.004266701627
0.004507793553
0.004743359086
0.00497406175
0.005200540507
0.005423548944
0.005643860178
0.005862267868
0.006079645072
0.006296829233
0.006514553191
0.006733784014
0.006954022882
0.007176831756
0.007405571005
0.007647071436
0.007897066957
0.008160178681
0.008435635184
0.008727991569
0.009035634437
0.009350352228
0.009664621547
0.009983660939
0.0103105126
0.01064738265
0.01099449423
0.01135428079
0.01172077779
0.01214721744
0.01244553302
0.01243879753
0.0001393167613
0.0001144854092
0.000109591862
0.0001262310273
0.0001719797519
0.0002584294619
0.0003924831494
0.0005701984191
0.0007789588593
0.001005323592
0.001239659624
0.001476272566
0.00171203443
0.00194524678
0.002174835968
0.00240004487
0.002620330486
0.002835278833
0.003044642556
0.003248248979
0.003446072756
0.003638119703
0.003824551144
0.004005564808
0.004181421465
0.004352365039
0.00451892931
0.004681244057
0.004841190833
0.005003245193
0.005181598385
0.005414744541
0.005753761941
0.006159185454
0.006342235967
0.006451187512
0.006545496516
0.006619021771
0.006712071548
0.006813331774
0.00692580271
0.007045683452
0.007167015516
0.007286689036
0.007403275221
0.007517591845
0.007630504344
0.007782463906
0.007765221515
0.008715988244
0.000134970065
0.0001099818162
9.440274049e-05
8.360813586e-05
7.647718046e-05
7.16560509e-05
6.843428306e-05
6.644903373e-05
6.551596118e-05
6.553902173e-05
6.646307201e-05
6.824331603e-05
7.082529159e-05
7.413651771e-05
7.808813759e-05
8.258231431e-05
8.751262007e-05
9.278252313e-05
9.831035602e-05
0.000104023052
0.0001099095944
0.0001159577149
0.0001222218154
0.0001287673168
0.0001356575967
0.0001430226248
0.0001508591566
0.0001593757775
0.0001686624673
0.0001797395194
0.0001945940186
0.0002165320427
0.0002476425519
0.0002828460866
0.0002928226228
0.0002989123292
0.0003045711039
0.0003103450817
0.0003197746273
0.0003319271251
0.0003464856196
0.000362870919
0.0003805276947
0.0003986586543
0.0004167043063
0.0004342114262
0.0004481351327
0.001002946101
0.0009915130045
0.001462014577
0.0001340100899
0.0001114253168
9.570286035e-05
8.475938558e-05
7.738936398e-05
7.223339667e-05
6.854443126e-05
6.590224804e-05
6.40596827e-05
6.286831965e-05
6.223768949e-05
6.2109473e-05
6.244267112e-05
6.320749412e-05
6.437634931e-05
6.592422997e-05
6.78192707e-05
7.00494145e-05
7.259459928e-05
7.546227149e-05
7.865580763e-05
8.219352331e-05
8.611721588e-05
9.047883953e-05
9.534600871e-05
0.0001008009151
0.0001069445238
0.000113825552
0.0001215149503
0.0001299898553
0.0001391515303
0.0001486855129
0.0001581463192
0.0001668397646
0.0001741468472
0.0001775374659
0.0001770414452
0.0001796607798
0.0001889185235
0.0002024797564
0.0002186556794
0.0002367860705
0.0002565545116
0.0002771930959
0.0002983338078
0.0003198863487
0.0003402656931
0.0008189477737
0.0008115113753
0.001011021564
0.000134064408
0.0001117537849
9.617693363e-05
8.475821057e-05
7.738399247e-05
7.214078606e-05
6.838317452e-05
6.568675657e-05
6.380845222e-05
6.260399753e-05
6.198591378e-05
6.190180659e-05
6.231654504e-05
6.319947828e-05
6.452499063e-05
6.626984488e-05
6.841082815e-05
7.092278171e-05
7.378870828e-05
7.700186204e-05
8.057107112e-05
8.4510564e-05
8.885699087e-05
9.366763032e-05
9.901994082e-05