/*--------------------------------*- C++ -*----------------------------------*\
| =========                 |                                                 |
| \\      /  F ield         | OpenFOAM: The Open Source CFD Toolbox           |
|  \\    /   O peration     | Version:  2.2.1                                 |
|   \\  /    A nd           | Web:      www.OpenFOAM.org                      |
|    \\/     M anipulation  |                                                 |
\*---------------------------------------------------------------------------*/
FoamFile
{
    version     2.0;
    format      ascii;
    class       volScalarField;
    location    "9";
    object      p;
}
// * * * * * * * * * * * * * * * * * * * * * * * * * * * * * * * * * * * * * //

dimensions      [0 2 -2 0 0 0 0];

internalField   nonuniform List<scalar> 
86889
(
591.1447404
590.8010535
590.6657957
590.4988066
590.2435701
589.9615266
589.6706133
589.3513899
588.9917769
588.5886395
588.1380256
587.6342687
587.0700862
586.4379434
585.7276859
584.9287858
584.0297489
583.0166712
581.8741171
580.5841623
579.1252454
577.4736855
575.6001439
573.4729943
571.0510424
568.2918073
565.1364593
561.521969
557.3689443
552.5831215
547.0374786
540.597739
533.10825
524.3983753
514.2976937
502.5448251
488.9700393
473.1894973
454.9090502
433.8348825
409.6251494
381.9331374
350.4755971
315.0839904
275.7021115
232.4586186
185.6658757
136.1663787
85.34797265
39.07951899
590.9935371
590.7353778
590.5564707
590.3596244
590.1348394
589.8836681
589.6085047
589.3032556
588.9595487
588.5720016
588.1361258
587.6465531
587.0965102
586.4784957
585.7827774
584.998918
584.1156002
583.1186744
581.9931542
580.7222446
579.2827667
577.6541996
575.8052878
573.7055212
571.3176229
568.59461
565.4821222
561.9171493
557.8211586
553.0999987
547.636661
541.2908374
533.9192285
525.329374
515.3520801
503.7308055
490.4076503
474.7330105
456.5866804
435.675429
411.6114882
384.0300814
352.6366358
317.2414303
277.7649382
234.2905201
187.0826914
136.8318472
85.2583366
38.01604017
590.9939925
590.8225221
590.6751048
590.497746
590.28561
590.0444032
589.7793286
589.4784949
589.1342763
588.745604
588.310599
587.8241222
587.2796679
586.6701407
585.9857246
585.2174105
584.3526017
583.3787883
582.2808663
581.0394678
579.6370638
578.0477996
576.2477446
574.202387
571.8789456
569.2298677
566.20668
562.7446924
558.7726561
554.1946309
548.9006793
542.747275
535.5960616
527.2529586
517.5373465
506.2078697
493.1960971
477.8872915
460.098651
439.5327768
415.7558316
388.4029451
357.1400067
321.7691265
282.1435604
238.3255851
190.5689108
140.2204672
86.96856144
39.43107521
591.0021694
590.8253008
590.663113
590.4666022
590.2691033
590.0475691
589.7861834
589.5008948
589.1779668
588.8101089
588.3977743
587.9378853
587.4230604
586.8450971
586.1957714
585.4637367
584.6392251
583.7080415
582.6565113
581.4678161
580.1233875
578.6002218
576.8736036
574.9133444
572.6858996
570.1502216
567.2576741
563.9499262
560.1549907
555.7871857
550.7328317
544.8663114
538.0378184
530.0593986
520.7242032
509.8101558
497.1307721
482.3127143
465.0505027
444.9668099
421.6204962
394.6120387
363.579404
328.2476762
288.4434339
244.2519749
196.1397529
145.0740113
89.71282567
40.66498886
591.0842494
590.9224058
590.7837946
590.6061851
590.4269897
590.2411776
590.0067669
589.7336823
589.4248434
589.0712961
588.6718125
588.2272076
587.7305965
587.1757623
586.5545396
585.8578326
585.0744319
584.1912374
583.1945368
582.0686246
580.7952766
579.3536591
577.7201799
575.8670831
573.7633094
571.3720082
568.6476301
565.5375854
561.9726984
557.8715733
553.1271023
547.6156177
541.185653
533.6548068
524.8175148
514.4681369
502.3489246
488.1873431
471.6048729
452.1574534
429.3859166
402.8462163
372.1227424
336.8673467
296.8462343
252.2506
203.2715212
150.4730585
93.12505543
42.23384633
591.1768977
591.0118261
590.8712733
590.6898924
590.5073352
590.3263359
590.1146873
589.8546287
589.5637425
589.2374358
588.8679877
588.4592916
588.0043276
587.4940859
586.9211524
586.2773437
585.5527452
584.7353405
583.8118242
582.7674705
581.584916
580.2448251
578.7256017
577.0023453
575.0468869
572.8269608
570.3021443
567.4268344
564.1333543
560.3510619
555.979837
550.8890061
544.9196052
537.9067307
529.6619867
519.9778119
508.581523
495.1973858
479.4131607
460.7475642
438.6958604
412.7488453
382.4335048
347.2931892
307.0146242
261.750143
211.3922454
156.891104
97.23194202
44.05814078
591.316977
591.1600455
591.032483
590.8675977
590.7024042
590.5395596
590.3536602
590.1286749
589.8600146
589.5478253
589.2055701
588.8256635
588.4040592
587.9336088
587.4074254
586.8178605
586.1556622
585.4097745
584.5675725
583.6149114
582.5351079
581.3098611
579.9190675
578.3407202
576.5498778
574.5200266
572.2165184
569.6006145
566.6157469
563.1924746
559.2327751
554.6127
549.171099
542.758015
535.1886804
526.2535034
515.7016518
503.1954717
488.3110624
470.5315789
449.2889356
424.0218825
394.1819705
359.1930751
318.5982923
272.365268
220.5578921
164.2886227
101.9673938
46.18852379
591.4695082
591.3121528
591.1867137
591.0241161
590.8642789
590.7083131
590.5365548
590.3322497
590.0889373
589.8119434
589.504588
589.1657401
588.7906886
588.3730188
587.9063622
587.3837888
586.7968897
586.1354781
585.3876182
584.5396963
583.5761728
582.4796706
581.2310885
579.8111131
578.1974133
576.3702185
574.3019284
571.9639347
569.3097295
566.2713788
562.7581197
558.6507221
553.7853041
548.0090249
541.13733
532.9710916
523.2981696
511.7717309
497.9087912
481.1159707
460.7739183
436.2599323
406.9378793
372.1153065
331.1913758
283.9530441
230.5266804
172.3666094
107.1025704
48.47485134
591.6549251
591.5033122
591.3877784
591.2379779
591.0958142
590.9547876
590.7985799
590.6255597
590.4147863
590.17031
589.8948948
589.5934329
589.2633231
588.8983602
588.4924805
588.039546
587.5321171
586.9608439
586.3144757
585.5796522
584.7411289
583.7812776
582.682554
581.4268605
579.9931619
578.3697061
576.5378213
574.4840398
572.1703004
569.5281581
566.4806478
562.9114977
558.6640394
553.5945769
547.5243086
540.2097655
531.4740719
520.9341964
508.0855512
492.2887003
472.8654646
449.1172064
420.326131
385.6582704
344.4157463
296.216122
241.1186422
180.9616959
112.615497
50.97505799
591.8523228
591.7018712
591.5888803
591.4453723
591.3075405
591.184202
591.0492315
590.8965991
590.7131043
590.5062709
590.2695015
590.0116171
589.7328752
589.4275579
589.0898909
588.714568
588.295134
587.8230616
587.2876955
586.6755517
585.9717545
585.1581129
584.2149564
583.1270198
581.8745572
580.4453308
578.8409387
577.0602775
575.0854824
572.8604561
570.3060496
567.2882032
563.6372661
559.2078466
553.8420268
547.3106004
539.5067602
530.0842209
518.3874623
503.6550022
485.1784295
462.1972567
433.8928754
399.3411522
357.7353291
308.5602137
251.7579035
189.4754299
118.0359347
53.41139022
592.0724761
591.9264033
591.8240963
591.689989
591.5678192
591.4603022
591.3461857
591.2178106
591.0631895
590.8909494
590.693447
590.4802698
590.2533924
590.0084143
589.7404939
589.4453482
589.1175603
588.7494708
588.3312115
587.8497439
587.2891895
586.6294073
585.8449696
584.9203143
583.8403834
582.5945524
581.1879845
579.6403667
577.9627519
576.1369158
574.0789309
571.6581877
568.7107499
565.0632114
560.5047066
554.7925414
547.8161441
539.2869089
528.6304637
514.9306101
497.3755584
475.1257652
447.2641963
412.7934787
370.7927846
320.679224
262.2795285
197.9157487
123.4590985
55.90079785
592.2977484
592.1545369
592.0573302
591.9327263
591.8233806
591.7312202
591.6366652
591.5320601
591.4056343
591.2676685
591.11035
590.9437422
590.7709689
590.5888526
590.3936731
590.1823384
589.9506227
589.6918359
589.3979143
589.0562141
588.645643
588.1439239
587.5228986
586.758525
585.8375531
584.7552102
583.5306978
582.2083154
580.8336106
579.4004779
577.8079062
575.873822
573.4153712
570.2423906
566.2215778
561.2167492
555.4191595
548.2812073
538.7597458
526.0671871
509.3717354
487.7608993
460.2426503
425.7294119
383.2320628
332.0782187
272.057854
205.5995484
128.3360051
58.11040289
592.5392792
592.3991634
592.3082357
592.1933172
592.0972248
592.0216291
591.9472947
591.8672894
591.7692829
591.6654116
591.5479329
591.4273461
591.3081094
591.1883284
591.0656491
590.9383796
590.8037306
590.6572034
590.493821
590.2954927
590.0400147
589.7030347
589.2536883
588.6486255
587.8554454
586.8697831
585.7226447
584.5100911
583.3571112
582.3344611
581.3146904
580.0942041
578.465083
576.140317
572.8211122
568.1960488
562.7369821
556.2830814
547.9596591
536.439695
520.6775653
499.7068361
472.4869837
437.9368193
394.9725536
342.8716318
281.3475235
212.9086323
133.0291984
60.27240538
592.7836634
592.6462561
592.5607952
592.4547765
592.3705392
592.3103027
592.254818
592.1977861
592.1273181
592.0561844
591.976857
591.9008819
591.8337778
591.7748846
591.723205
591.6788152
591.6400446
591.6073987
591.5757128
591.5232557
591.4281671
591.2658672
590.9960935
590.5658721
589.9266887
589.0658904
588.035841
586.9293482
585.961939
585.2196938
584.5082911
583.6426089
582.3303372
580.3693216
577.4343291
573.2562398
569.8649447
564.9904433
557.4091814
546.6256188
531.6284682
511.1596114
484.1182765
449.3964674
405.825787
352.6594749
289.6655086
219.3383455
137.1347387
62.14940986
593.0336438
592.8991072
592.8192163
592.7221059
592.6490096
592.6040644
592.5669121
592.5317556
592.48776
592.4479329
592.4047902
592.3709523
592.3530857
592.3517344
592.3673393
592.4018982
592.4554898
592.5328865
592.62865
592.7211596
592.7917902
592.8022303
592.6979524
592.4026707
591.8362312
590.9371408
589.7254816
588.4604643
587.8000459
587.6901457
587.7780729
587.6858061
587.2182611
586.2477627
583.593834
577.6432801
574.6369513
571.4678262
565.2667984
555.6559377
541.507976
521.5430105
494.8028878
460.0567071
416.0843237
362.0328089
297.663213
225.5959914
141.1778665
64.08556611
593.2833019
593.1511633
593.0761471
592.9868782
592.9248634
592.8931274
592.8726616
592.8575411
592.8378049
592.8264825
592.8165116
592.8210245
592.8477882
592.8985322
592.9750208
593.0809941
593.2186669
593.3960501
593.6094601
593.8437217
594.0868613
594.2925804
594.4114182
594.3662665
594.0401424
593.3088757
592.1002437
590.5949661
589.7588444
589.6476611
589.8806136
590.0113484
589.7618332
588.8738624
586.9787614
583.7830729
581.7651536
578.8404084
573.3606176
564.4517527
550.8517269
531.3593682
504.7856995
469.8895206
425.4841594
370.5431551
304.9061132
231.1550914
144.698454
65.68695756
593.531798
593.4020191
593.331692
593.2496666
593.1974417
593.1780613
593.1729309
593.1759516
593.1779687
593.1918999
593.2118111
593.2503376
593.3161576
593.4121973
593.541294
593.7086641
593.9176455
594.1802406
594.4884166
594.8350353
595.1998084
595.5419934
595.7853275
595.8605365
595.6425317
594.858184
593.2115312
591.2293811
591.3540547
592.7291537
593.2012044
593.2719481
593.1533775
592.6310646
591.4089992
588.9890334
586.5787858
583.8858638
579.5947194
571.7721616
558.927119
539.9927723
513.7710254
478.9848317
434.3817593
378.8494539
312.143088
236.8926579
148.3508575
67.3504594
593.7757948
593.6479712
593.5818114
593.506187
593.462472
593.4538291
593.4617907
593.4806037
593.5013774
593.5369184
593.5820045
593.6491197
593.7473692
593.8803426
594.0515074
594.2670964
594.53121
594.8600331
595.2459459
595.693678
596.1895523
596.7082862
597.1878841
597.5550283
597.7192808
597.1028581
595.4852266
592.2195786
592.7969011
593.4351719
594.7196009
595.5601993
595.7292233
595.4374903
594.5942533
592.8978801
591.29792
589.2896143
585.6697551
578.5312365
566.2253379
547.7424513
521.6705205
486.9899293
442.254646
386.2317324
318.6223012
241.9530592
151.6724546
68.93495371
594.0135113
593.8874143
593.8250093
593.7549117
593.7186267
593.7193976
593.7388372
593.7712261
593.8075704
593.861164
593.9261587
594.0159857
594.1397277
594.3008195
594.502812
594.7517531
595.0519748
595.4163858
595.8389798
596.3134089
596.8216922
597.3245264
597.7480249
598.0284326
598.0512073
597.5296627
596.1760049
594.5427553
595.015876
596.7605145
597.6681286
598.2178717
598.5319985
598.7809454
598.1983834
596.6332504
595.2929522
593.4502546
589.9195727
583.2016945
571.4399924
553.5098837
528.066529
493.8046752
449.2350171
393.0592856
324.8005899
246.9600297
155.0217915
70.41238879
594.2430779
594.1183777
594.0590145
593.9934021
593.9631899
593.9716221
594.0002654
594.0436287
594.0921182
594.1594971
594.2394371
594.3459982
594.4878685
594.6679095
594.8892545
595.1572495
595.4759906
595.8554993
596.2950331
596.7822465
597.3083106
597.8311612
598.3051449
598.6597875
598.7842554
598.56562
597.9663966
597.1077805
597.0299626
597.7405986
598.7614451
599.9928065
600.2940165
601.2754527
600.4891125
598.3202645
598.3239023
596.8966013
593.3451396
586.6379344
575.1676108
557.6258774
532.6035938
498.6474053
454.2223842
398.0015975
329.4043451
250.5866163
157.5421182
71.56620256
594.4630442
594.3395152
594.2828194
594.2206616
594.1956001
594.210228
594.2461983
594.2981173
594.3557272
594.4329815
594.5237476
594.6416975
594.7949275
594.9857088
595.216468
595.4915122
595.8135817
596.19074
596.6213077
597.0875967
597.5759874
598.052982
598.4715028
598.7625058
598.8531918
598.694432
598.3067614
597.9704322
598.3407535
599.4125398
600.589103
602.048935
601.9782417
603.7341229
603.0234467
598.6727802
599.2630988
598.5553033
594.8299211
587.9755916
576.6729942
559.4445625
534.8565354
501.3437966
457.2837362
401.3000626
332.5858961
253.2506091
159.4877114
72.41811812
594.6719967
594.5491214
594.4942546
594.4345133
594.4130257
594.4318509
594.4729083
594.5305963
594.5940441
594.6772206
594.7743025
594.8981923
595.0563014
595.2502048
595.4814482
595.7530333
596.0667181
596.4269509
596.8335184
597.2692283
597.7179403
598.16222
598.5695031
598.8951679
599.104729
599.1848007
599.2011887
599.2719245
599.6269043
600.3420057
601.159599
602.0959502
602.3314722
602.967007
602.9254359
600.698507
600.2075389
598.5070975
594.3378664
587.116054
575.671482
558.4935193
534.0539362
500.7798806
457.0053885
401.3351427
332.8313348
253.5905428
159.7381977
72.52041485
594.8695749
594.7474346
594.694229
594.6364504
594.6179563
594.6399676
594.6846458
594.7459185
594.8131825
594.8995411
594.9993304
595.1248203
595.2827374
595.4738292
595.6987694
595.959333
596.2567268
596.5911574
596.9628143
597.3596017
597.7658518
598.1646816
598.5339896
598.844724
599.0707254
599.2018774
599.2978581
599.4699945
599.8481575
600.5008458
601.2853938
602.0291198
602.4454073
602.6403221
602.1292353
600.5439239
599.0119904
596.5327067
591.9139319
584.1730637
572.2363011
554.7537235
530.2324098
497.0612563
453.5570559
398.2482986
330.236783
251.6907919
158.4751109
71.94560573
595.0537094
594.9314442
594.8784223
594.821151
594.803751
594.8268173
594.8724834
594.9343984
595.0026561
595.0887947
595.1873432
595.3104387
595.4638066
595.6472851
595.8605783
596.1045034
596.3792836
596.6833148
597.0143578
597.36629
597.7249548
598.0764834
598.4020301
598.6920971
598.9335523
599.1259386
599.3175211
599.5689613
599.9235441
600.3907453
600.8812989
601.2625764
601.3696197
601.145761
600.3914068
598.8381867
596.5515021
593.0805597
587.5526001
578.9553422
566.1977267
548.0470875
523.0706063
489.6649613
446.1857812
391.2608011
324.037401
246.7176355
155.1589675
70.40950652
595.2269197
595.1052517
595.0532176
594.9978956
594.9814436
595.0056024
595.0518931
595.1138853
595.1818829
595.2658812
595.360771
595.478427
595.6237119
595.7955477
595.9928608
596.2156244
596.4632255
596.7334265
597.022497
597.324312
597.6304457
597.9289922
598.2047108
598.4510604
598.6623755
598.8318774
598.9878197
599.1593357
599.3639079
599.595384
599.7844111
599.8119187
599.5122045
598.7721266
597.4320186
595.2468976
592.1429834
587.7349722
581.190965
571.5355538
557.7417328
538.6639156
512.9511023
479.0793558
435.4971117
380.9968304
314.8508398
239.3825159
150.2950132
68.16698125
595.3846109
595.2615612
595.2073026
595.151525
595.1323269
595.1543049
595.1978409
595.2567995
595.3213958
595.4001158
595.4891441
595.5998422
595.7355354
595.8940597
596.0736534
596.273536
596.4922949
596.727056
596.9734422
597.2249654
597.4744764
597.7124591
597.9275797
598.1133628
598.2607053
598.3656851
598.4419589
598.49933
598.5346098
598.5069747
598.3407147
597.9309469
597.1282667
595.819682
593.8731862
590.9134454
586.8567289
581.279411
573.4239349
562.4443959
547.3583462
527.0801536
500.3694974
465.8021748
422.001905
367.9141728
303.0822596
229.8944357
143.9675938
65.25467211
595.5361306
595.4135098
595.3601217
595.3021849
595.286135
595.3099766
595.3527064
595.4101416
595.4720878
595.5407556
595.6221324
595.724056
595.8471335
595.9888937
596.1475148
596.3215823
596.5088924
596.7058748
596.9076238
597.1077276
597.2985302
597.4704611
597.6147548
597.7221427
597.7808066
597.7867498
597.7328397
597.6145869
597.4079916
597.051999
596.4726754
595.5657461
594.1760951
592.1678745
589.379369
585.5000348
580.4126809
573.5928995
564.3965407
551.9991864
535.4874783
513.8693204
486.0266679
450.6813952
406.6443432
353.0799214
289.800128
219.1900622
136.9531874
62.05477524
595.6648234
595.5396953
595.4813965
595.4190506
595.3959945
595.4133204
595.4535422
595.5047603
595.5580014
595.6178781
595.6938461
595.7891875
595.9017926
596.0290081
596.1688095
596.3191995
596.4770559
596.6381537
596.7968515
596.9463253
597.0782049
597.1831008
597.2496044
597.2671063
597.2212179
597.1007362
596.88665
596.5593036
596.0793559
595.3865156
594.3890233
592.9756798
590.9867131
588.26753
584.6219842
579.8209328
573.5808451
565.4525782
554.8259912
540.9314443
522.9240266
499.8943444
470.8540321
434.7198506
390.4802687
337.584054
276.0004724
207.877641
129.6430099
58.74327744
595.7937938
595.670322
595.6136918
595.5564613
595.5373693
595.5599177
595.6005997
595.6460551
595.688894
595.7394163
595.8041697
595.8867233
595.9836076
596.0917145
596.2089341
596.3325828
596.4588757
596.5825749
596.6974002
596.7955195
596.8678175
596.903141
596.8887019
596.8099833
596.6499338
596.3883586
595.9982186
595.4450554
594.6803003
593.6333495
592.2042694
590.2667705
587.6552156
584.2002821
579.6979248
573.9014536
566.5153227
557.0835384
545.0371066
529.6749814
510.2127422
485.8236664
455.6492567
418.8040601
374.4739077
322.3658644
262.5734469
196.8299535
122.5469645
55.55288365
595.8996253
595.7706069
595.7054307
595.6377835
595.6087078
595.6216587
595.6468727
595.669072
595.7071064
595.758505
595.8231775
595.9027539
595.9919148
596.0885949
596.1904023
596.294107
596.3949861
596.4872557
596.5636349
596.6156224
596.6326799
596.6024311
596.5093191
596.3365807
596.0611977
595.6570385
595.0895737
594.313668
593.2685427
591.8740622
590.0293348
587.5875744
584.3830633
580.232091
574.9168157
568.1889128
559.6884028
549.0375416
535.67383
518.9387696
498.1273168
472.4955846
441.3041023
403.851166
359.5340507
308.3257236
250.3118053
186.7308405
116.0665505
52.64355208
596.0130963
595.8879469
595.8275134
595.768359
595.7494473
595.7671374
595.7818791
595.8041937
595.8388268
595.8796958
595.929803
595.989298
596.060093
596.1362872
596.2164359
596.2958162
596.3686468
596.4282483
596.4666351
596.4738588
596.4382109
596.34549
596.1781489
595.9149851
595.5298478
594.9893602
594.2533963
593.267077
591.962127
590.2507062
588.0219426
585.1220209
581.3699609
576.5773793
570.5046882
562.8888873
553.4085367
541.653461
527.1091038
509.1618125
487.1639111
460.4660607
428.4309664
390.5007129
346.2598856
295.7737828
239.4253018
177.9279456
110.395172
50.08825076
596.1007729
595.9626983
595.8819606
595.8086483
595.7745018
595.7614044
595.7562923
595.775522
595.8072067
595.8466715
595.8972034
595.9587555
596.0280932
596.1026957
596.175475
596.2429575
596.2987754
596.3362145
596.3465783
596.3192073
596.2414628
596.0973295
595.8670818
595.5264417
595.0458185
594.3870719
593.5030389
592.3348431
590.8020317
588.818212
586.2478623
582.9463274
578.7332359
573.3763272
566.6659793
558.2975266
548.0335057
535.3440957
519.7965365
500.8542928
477.9014686
450.3582372
417.6756016
379.4180138
335.281376
285.3089664
230.1080241
170.6426452
105.6850243
47.9358134
596.217036
596.0827268
596.0169244
595.9640688
595.923885
595.9012431
595.9006275
595.9105648
595.9279017
595.9554526
595.9938315
596.040765
596.0936896
596.1492984
596.2033002
596.2498626
596.2839795
596.2977786
596.2815611
596.2226389
596.1085183
595.9201904
595.6383285
595.2337225
594.6757821
593.9191779
592.917713
591.5981169
589.8888402
587.6777216
584.8471019
581.2258545
576.6471418
570.8667275
563.6701624
554.7363931
543.9006647
530.477264
514.1381982
494.4386642
470.7623567
442.6023944
409.4410253
370.9806968
326.9557546
277.489637
222.85353
164.3206326
102.0339274
46.25136043
596.3026856
596.0854117
595.9902946
595.9211843
595.8644421
595.8320305
595.8247916
595.8359197
595.8601719
595.8954374
595.940088
595.9920886
596.0485232
596.105876
596.1593835
596.2035251
596.231663
596.2357718
596.2064314
596.1313856
595.9953998
595.7803763
595.4625336
595.0151879
594.4015744
593.5792585
592.4913408
591.0712504
589.2337267
586.8686445
583.8476803
580.0029806
575.1562527
569.0747046
561.5282086
552.207026
540.9551765
527.0321005
510.1703276
489.9379038
465.786342
437.2076253
403.763361
365.1632875
321.2488247
272.1097114
218.0472053
159.9445222
99.80043707
44.53621711
596.492369
596.1887935
596.1366915
596.0981139
596.0167499
595.9561182
595.9346669
595.9339268
595.944713
595.9670253
596.0002653
596.04174
596.0881499
596.1358358
596.1798562
596.2145285
596.2332491
596.2276197
596.1875075
596.1003524
595.9504765
595.7193161
595.3834215
594.9137907
594.2745351
593.4182532
592.2896399
590.8196283
588.9205967
586.4767562
583.3645813
579.4113866
574.4319196
568.1887957
560.4756152
550.9860052
539.4284476
525.3267509
508.2462884
487.7598298
463.3721517
434.5953471
401.0132315
362.3618365
318.5252455
269.6476599
216.1152122
158.9411358
99.83415955
45.58499956
590.9633553
590.6796918
590.4850917
590.3295851
590.102035
589.8466722
589.5760492
589.2742343
588.9298255
588.5396271
588.0999838
587.6054737
587.0489501
586.4226014
585.7175895
584.9240192
584.0294903
583.0211987
581.882646
580.5973396
579.1428751
577.4977981
575.6321626
573.5154816
571.1084953
568.3639413
565.2307342
561.6401028
557.5196891
552.7650124
547.2710908
540.8835641
533.4612846
524.7800383
514.7767713
503.1364693
489.6095477
474.0763468
456.0067886
435.0961915
410.9898935
383.374452
352.000266
316.6670493
277.2744995
233.9260968
186.9683767
137.7018235
85.73945166
38.33073417
590.8274431
590.6145336
590.4045261
590.170363
589.9780416
589.7582335
589.4995266
589.2088891
588.8804601
588.5063838
588.0818908
587.6022799
587.0613009
586.4511953
585.762795
584.9860032
584.1082516
583.1175862
581.9982892
580.7335599
579.3020342
577.679939
575.8413558
573.7545547
571.3801096
568.6763943
565.5889173
562.0537063
557.9966455
553.3197683
547.9081871
541.6274157
534.3194867
525.8072998
515.9077755
504.3884426
491.04328
475.6375091
457.7551224
437.0126234
413.0614927
385.5783341
354.2906308
318.9592935
279.4609026
235.8244368
188.3027044
137.060004
87.68439323
38.07885454
590.8271193
590.6932877
590.5310008
590.3167602
590.1157605
589.9096965
589.6694529
589.384213
589.0529511
588.6764177
588.252446
587.7757696
587.2391904
586.6364923
585.957003
585.1930744
584.3317579
583.3612713
582.2670016
581.0287212
579.6287701
578.0462264
576.2508033
574.2180092
571.9059924
569.2752952
566.2720903
562.8371142
558.8966032
554.3581481
549.1049085
543.0194911
535.927108
527.6467136
517.9944578
506.7463961
493.7071829
478.5854889
461.0193018
440.5825288
416.9192991
389.6862992
358.5751029
323.2725899
283.6245682
239.6403476
191.6359268
139.9756877
90.78719354
39.90321468
590.8445697
590.7153769
590.5587443
590.3329434
590.0809693
589.8739419
589.6596713
589.3972719
589.0865776
588.7315871
588.3324123
587.8837963
587.378195
586.8115542
586.1711003
585.4456143
584.6260739
583.700113
582.6541598
581.4712604
580.1329898
578.6181507
576.9026735
574.956303
572.746554
570.2324928
567.3676051
564.0937322
560.3433665
556.0281923
551.0426381
545.2577279
538.5360245
530.6790291
521.4881141
510.7283965
498.1813245
483.5989787
466.590054
446.723186
423.5964441
396.8311698
366.021646
330.8188424
290.9838027
246.5107251
197.9660632
143.3447421
92.82650095
41.2832373
590.9259913
590.8179913
590.6871317
590.5019509
590.2868677
590.0628581
589.8647166
589.6279863
589.3351804
588.9917616
588.6058719
588.1709572
587.686811
587.1389203
586.5252056
585.8353352
585.0579799
584.1804841
583.189962
582.0710078
580.8059641
579.3738892
577.7519469
575.9125882
573.8265904
571.4568082
568.7612718
565.6878902
562.1724404
558.1345994
553.4699641
548.060204
541.756494
534.3745329
525.6992988
515.5018807
503.6151547
489.7399934
473.4539636
454.293669
431.8421827
405.6442161
375.2371374
340.1809404
300.1365013
254.9767631
205.6732922
148.5578907
95.42437218
42.80961636
591.020462
590.9123915
590.7830576
590.6030187
590.3923894
590.1676834
589.9409827
589.726971
589.4688709
589.1521406
588.7939607
588.3995721
587.9560191
587.4554488
586.8911032
586.2545217
585.5362736
584.7250403
583.8085827
582.7724648
581.5995986
580.2705526
578.7641272
577.0555406
575.1198101
572.9233858
570.4301957
567.595053
564.3581691
560.6488049
556.3605255
551.3998823
545.5946068
538.7835406
530.7335407
521.2355579
510.105653
497.0513847
481.631247
463.3326657
441.6766136
416.225579
386.3537829
351.523012
311.2688923
265.2258643
214.5817534
155.1484078
99.87322801
44.86971246
591.1607009
591.0606273
590.9454472
590.7866516
590.6054782
590.410261
590.200356
589.9790786
589.742084
589.4621136
589.1327746
588.764258
588.3538387
587.8936215
587.3765847
586.7952703
586.1407671
585.4018005
584.5668571
583.6221795
582.5521392
581.3384366
579.9612977
578.39882
576.6289977
574.6247494
572.3553369
569.7844032
566.8610312
563.5184144
559.6547981
555.1999296
549.9680988
543.7961937
536.445111
527.7482186
517.4649701
505.3333594
490.8808355
473.5424193
452.7994316
428.2036406
398.969637
364.42566
323.9771595
277.1318802
224.8764008
162.913427
105.1065113
47.29520407
591.3138764
591.2143279
591.101036
590.9467725
590.7722791
590.5913462
590.3955459
590.1862006
589.9592902
589.7117069
589.4266887
589.1026243
588.739125
588.3317736
587.8746031
587.3610493
586.7828724
586.1301296
585.39091
584.5524204
583.5996371
582.5153107
581.2812182
579.8774778
578.2850498
576.4845684
574.452806
572.1627342
569.5729172
566.6192699
563.2197847
559.306505
554.6986443
549.1904737
542.5502945
534.6912556
525.3133466
514.1938861
500.8131847
484.5396952
464.8131866
441.1221896
412.5892568
378.3881246
337.7531831
290.0865154
236.0563872
171.4008494
110.8239556
49.91351982
591.4994537
591.4053112
591.3014243
591.1616836
591.0067341
590.8428427
590.6750155
590.4917901
590.2833315
590.0577934
589.8104672
589.529584
589.2121485
588.8570864
588.4607672
588.0172096
587.5189182
586.9569637
586.3207139
585.5970412
584.7706344
583.8247419
582.7416716
581.5030136
580.0919772
578.4955567
576.7019307
574.6978004
572.4477356
569.8995032
566.9845184
563.6395174
559.7125544
554.9881151
549.2549034
542.2435474
533.7793276
523.6599421
511.3411649
496.1492139
477.45484
454.6895866
426.8524078
392.9933047
352.1661178
303.6311025
247.7295584
180.420225
116.9747454
52.77391185
591.6971398
591.6041741
591.5031612
591.3702794
591.2210512
591.0767564
590.9287226
590.7696453
590.5883965
590.3848532
590.1777498
589.9459887
589.6819378
589.3865417
589.0587107
588.6935713
588.2843425
587.8228729
587.2990678
586.7001327
586.0107403
585.2133183
584.286777
583.2138669
581.9793435
580.5801903
579.0150934
577.2845858
575.3763584
573.2513167
570.8379481
568.0555403
564.7232014
560.633886
555.6124455
549.3969811
542.0625524
533.1814776
522.0573093
507.9739626
490.3135555
468.4261108
441.2092783
407.6172683
366.5679876
317.1257805
259.2702007
189.3561852
123.0268805
55.55643468
591.9177693
591.8292087
591.7376205
591.6150268
591.4815436
591.3541021
591.2271535
591.0932071
590.9405157
590.7688092
590.6003007
590.4144381
590.2031575
589.9683972
589.7106623
589.4264557
589.1101044
588.754492
588.3501993
587.8839729
587.3379226
586.6942989
585.9303332
585.0281017
583.9663126
582.7409452
581.3676156
579.8648849
578.2569989
576.5387756
574.6311798
572.447317
569.8319208
566.5568887
562.3584001
557.022122
550.604421
542.6977327
532.6905897
519.6970371
503.0301531
481.9111456
455.2264405
421.8474445
380.5894993
330.2975331
270.6270221
198.1952792
129.0630886
58.38127225
592.1433228
592.057592
591.9707537
591.8580308
591.7372634
591.6257904
591.5186174
591.4087211
591.2843666
591.1455083
591.0162472
590.8772246
590.7207663
590.54944
590.3650419
590.1656381
589.9470155
589.7034551
589.4261803
589.1000438
588.707241
588.2273524
587.6307427
586.8943538
585.9932994
584.917127
583.7026056
582.4102986
581.1001836
579.7928187
578.3610732
576.6460738
574.4310304
571.5601786
567.7978093
563.0918051
558.2678226
552.0062665
543.1936385
531.1997686
515.4427659
494.999907
468.7281463
435.3797835
393.6967791
342.414445
281.0706504
206.2008707
134.4793528
60.88618251
592.3849262
592.3021991
592.2210766
592.1185893
592.0109423
591.9166295
591.8296528
591.7443783
591.6490189
591.5437115
591.4537532
591.3609676
591.2585082
591.1500313
591.0388449
590.9247704
590.8055328
590.6772514
590.5314308
590.3528294
590.1236012
589.8183263
589.4003095
588.8238589
588.0510425
587.0578141
585.8672474
584.638576
583.5482862
582.6762136
581.8589815
580.8649825
579.4900778
577.4298069
574.1348853
570.042083
565.2133736
560.1711623
552.8935059
542.1331987
527.3151157
507.5243765
481.6033552
448.2569
406.1271659
353.8853292
290.9218569
213.7074677
139.5079421
63.18740332
592.6293794
592.549394
592.4735625
592.3800997
592.2845112
592.2053072
592.1376768
592.0755548
592.0075678
591.9346115
591.8827233
591.8346063
591.784571
591.7374858
591.6981753
591.6683828
591.6480975
591.6357543
591.6227967
591.5972727
591.5413918
591.4243567
591.2002496
590.8113583
590.1892182
589.3075154
588.1643016
586.9497922
586.0159597
585.4579616
584.9984115
584.3411047
583.3136159
581.5708363
577.1245919
572.7463986
574.5389722
569.0736199
561.903754
552.2578042
538.396656
519.196273
493.6009629
460.1068918
417.4085766
364.0732765
299.5841786
220.2548131
143.8639313
65.18380659
592.879452