/*--------------------------------*- C++ -*----------------------------------*\
| =========                 |                                                 |
| \\      /  F ield         | OpenFOAM: The Open Source CFD Toolbox           |
|  \\    /   O peration     | Version:  2.2.1                                 |
|   \\  /    A nd           | Web:      www.OpenFOAM.org                      |
|    \\/     M anipulation  |                                                 |
\*---------------------------------------------------------------------------*/
FoamFile
{
    version     2.0;
    format      ascii;
    class       surfaceScalarField;
    location    "9";
    object      phi;
}
// * * * * * * * * * * * * * * * * * * * * * * * * * * * * * * * * * * * * * //

dimensions      [0 3 -1 0 0 0 0];

internalField   nonuniform List<scalar> 
265716
(
38.35029386
-1.274428171
-0.8309824689
-41.88298895
2.907671124
2.730434797
39.77419587
-0.898234223
-0.1502328953
-0.0722227497
-0.30321196
40.03363094
-0.1413052857
0.1181730692
-0.07986852591
-0.1564341485
40.09216159
0.01848221171
0.06103704854
-0.05816017096
-0.07988953601
40.11938476
0.03337246499
0.04059039919
-0.04762748888
-0.05355834037
40.13673254
0.03314480355
0.0366325358
-0.04197851611
-0.04514629689
40.15084229
0.03194158035
0.03423237622
-0.03864673164
-0.04163667884
40.16330848
0.03063538976
0.03227366163
-0.03605769014
-0.03931716873
40.17472416
0.02911921165
0.03048371031
-0.0336582013
-0.03736008673
40.18538689
0.02751465582
0.02893353997
-0.03148390133
-0.03562660585
40.19548478
0.02588587024
0.02765042415
-0.02954301609
-0.0340908343
40.20517141
0.02421524497
0.02667040099
-0.02779518023
-0.03277660286
40.21459325
0.02245572316
0.02597547271
-0.02620427542
-0.03164838911
40.22376898
0.02058079
0.02551320757
-0.02473851942
-0.03053062701
40.23276176
0.0185594298
0.02533448912
-0.02338878897
-0.02949750666
40.24159059
0.01640957042
0.02548816193
-0.02214211568
-0.02858380551
40.25024
0.01414534154
0.02596717102
-0.02089945297
-0.02786203445
40.25848156
0.011698235
0.02685930804
-0.01960089718
-0.02719747723
40.2663412
0.009098661764
0.02807293558
-0.01828679316
-0.02674396589
40.27341989
0.00643516947
0.02985955006
-0.01702636747
-0.0263461609
40.27965563
0.003756537878
0.03186687442
-0.01574542508
-0.02611317705
40.28434794
0.001095948232
0.03482765686
-0.01458733799
-0.02602758837
40.28694166
-0.001504426805
0.03856122092
-0.01347937735
-0.02617065533
40.28672604
-0.003946007551
0.04306735429
-0.01243073276
-0.02647407497
40.28228341
-0.006422438022
0.04937134292
-0.01155223246
-0.02695384438
40.27342913
-0.008699786874
0.05596757375
-0.01060065728
-0.02781226953
40.25936437
-0.01071767726
0.06299814896
-0.01003671881
-0.02817935664
40.23910152
-0.01294719323
0.07172803395
-0.008855544662
-0.02966233786
40.21364626
-0.01485849666
0.08005415071
-0.009588911194
-0.03015183996
40.18567667
-0.01630838702
0.08743221517
-0.01118264936
-0.03197049301
40.16250132
-0.01453126851
0.09866634884
-0.02585684549
-0.03510280429
40.15887781
-0.006459317469
0.1125419055
-0.06012957497
-0.04232953904
40.1932317
0.005979461729
0.1218615741
-0.1105760867
-0.05162134773
40.24305425
0.003862973051
0.1314412695
-0.1304986855
-0.0546292057
40.2431259
-0.04136790679
0.1012620782
-0.03621686764
-0.02375009598
40.13168551
-0.06332426365
0.07293824581
0.03390389159
0.06792173427
39.74089804
-0.1057100802
0.07476505784
0.1377459426
0.283985715
39.4455975
-0.1453833162
0.07316842849
0.1936117308
0.1739023738
39.30034933
-0.141821366
0.1059263107
0.1299438489
0.05119711801
39.23134176
-0.1418114527
0.1333653757
0.08834256403
-0.01089198763
39.19238888
-0.1418389175
0.1600900284
0.057670388
-0.03697184399
39.16429499
-0.1433531594
0.1818915098
0.03780135235
-0.04824883916
39.13770414
-0.1466379275
0.1990838546
0.02722843602
-0.05308638631
39.10947332
-0.1499685408
0.2092334077
0.02338843061
-0.05442554204
39.08161897
-0.1545535476
0.2158492925
0.02235288332
-0.05579790865
39.05261258
-0.1572930763
0.2163629884
0.02349480606
-0.05356243587
39.04084297
-0.1489478459
0.2017396243
0.01911793816
-0.0601427243
38.85182992
0.00177135379
0.1342157416
0.06625058452
-0.01322466102
37.91208258
0.7506568981
0.3440748837
-0.04321267234
-0.1117729236
1.102309748
0.9188913882
39.71075368
-1.903696856
-1.916174401
44.83720837
-0.2640601442
-2.108917749
-47.99020053
4.25154206
43.17188723
0.2840768369
1.567642127
-1.084631908
43.06635061
0.02787650501
0.09686313802
-0.1605081464
43.08243647
0.03482607344
0.06611308199
-0.09854261768
43.10480644
0.04014983962
0.05227481104
-0.08142197196
43.12077996
0.04233927021
0.0527811175
-0.07794886237
43.13386836
0.0428348034
0.05386800498
-0.07784940875
43.14557955
0.04227571786
0.05491046801
-0.07826170122
43.15639975
0.04097950175
0.0558229264
-0.07850319449
43.16656117
0.03922172802
0.05652956791
-0.07839774701
43.17622011
0.03712026284
0.05711456624
-0.0780076591
43.1855356
0.03466839243
0.05765967665
-0.07742796399
43.19469771
0.03180987323
0.05819815641
-0.07671414525
43.20389291
0.02851929033
0.05875877674
-0.07589207537
43.21327371
0.02479922109
0.05938443489
-0.0750047429
43.22286852
0.02070144856
0.06017730512
-0.07406355505
43.23282789
0.0162920659
0.06103620054
-0.0731420119
43.24294483
0.01160986446
0.06214493746
-0.07217303695
43.25307112
0.006749214706
0.06355141632
-0.07132795778
43.26302912
0.001822057035
0.06507806562
-0.07042242188
43.27240446
-0.003289041586
0.06737392369
-0.06970335664
43.28084617
-0.008264987982
0.0699929483
-0.06907314767
43.2875145
-0.01301045238
0.07355603965
-0.06871809694
43.2913272
-0.0173542593
0.07819534083
-0.0685993082
43.29175934
-0.02136230321
0.08313967783
-0.06863194411
43.28710829
-0.02505500447
0.09008283828
-0.06907635816
43.27763167
-0.02832798782
0.09613106733
-0.06904451927
43.26136418
-0.03163272741
0.1053999013
-0.07044701558
43.24032773
-0.03528077724
0.1119819109
-0.07052359207
43.2137114
-0.04016876521
0.1225824836
-0.07210541956
43.18833108
-0.04658766007
0.1306756076
-0.07323916372
43.16858758
-0.05628371996
0.1440877322
-0.07452009869
43.16607497
-0.06772766664
0.1525016292
-0.07628358047
43.17764185
-0.08475571013
0.1499788057
-0.07292800494
43.1813075
-0.100773148
0.1099382777
-0.0541999457
43.12867814
-0.1172152467
0.06955999956
0.03695894988
41.97706677
-0.1361517383
0.06353827296
1.118513657
41.45870531
-0.1478434707
0.06260271219
0.4582179966
41.26610168
-0.1629655454
0.09566507056
0.118080858
41.20439239
-0.1790831405
0.1195223022
-0.02054313166
41.17978289
-0.1946935476
0.1422655373
-0.06480365361
41.16190854
-0.2065675101
0.1607319332
-0.07964522143
41.1428349
-0.2161468216
0.1750434039
-0.08646303538
41.12132696
-0.2224561872
0.1831084398
-0.08911487065
41.09963154
-0.2291685507
0.1878918257
-0.09158387886
41.07604179
-0.2336206261
0.1902690035
-0.09035429481
41.08891893
-0.2366810706
0.1704363153
-0.09558307577
41.25079236
-0.2490840309
0.1353523001
-0.0463726907
44.09621471
-0.5502349071
-1.365803351
-0.178728417
0.02135396757
2.307072922
46.75828241
-3.888184796
47.43219992
-0.009828813302
-2.452787572
-49.32565082
4.09200733
45.07195266
0.03123267986
4.156023728
-1.542932148
48.84488516
-0.1474124017
-3.822215509
0.2245721139
48.81240895
-0.02617465028
-0.05185987253
0.1453370113
48.78450579
0.02751038201
-0.003524962229
0.04406780885
48.78266961
0.03456572737
0.02966045796
-0.0200504854
48.79369089
0.03480893139
0.0465695083
-0.04956465764
48.8086798
0.03355116733
0.05390200508
-0.06016608999
48.82406518
0.03109434502
0.05692924596
-0.06242918022
48.83912955
0.02792839485
0.0584207937
-0.06219153397
48.85380605
0.02429010932
0.05951762017
-0.06136363195
48.86819623
0.02015958046
0.06057540005
-0.06045641861
48.88249832
0.01537306807
0.06172836763
-0.05959327345
48.89684954
0.009846870522
0.06313107797
-0.05880949378
48.91149909
0.003519274951
0.0647487748
-0.05811795368
48.9263735
-0.003282680498
0.06664124122
-0.05753110417
48.94159595
-0.01046137086
0.06861995477
-0.05708851156
48.95711954
-0.01834739833
0.0711933068
-0.05675919195
48.9730126
-0.02670227183
0.07403263175
-0.05647371958
48.98878976
-0.03532550546
0.07763337665
-0.05626248681
49.00405992
-0.04399340762
0.08173242581
-0.05629767744
49.01831242
-0.05246831911
0.08645191101
-0.05650058204
49.03074555
-0.06064486993
0.09203693109
-0.05683515669
49.04030674
-0.06797555681
0.09846497098
-0.05740451996
49.04597842
-0.07462223126
0.1058072904
-0.05821881463
49.0463252
-0.08029724096
0.114157732
-0.05926225488
49.04047022
-0.08565663589
0.123652659
-0.06046918052
49.02758865
-0.090118716
0.1332108281
-0.06184356763
49.00778059
-0.09528378151
0.1432279037
-0.06341701899
48.98212055
-0.1019091211
0.1521407392
-0.06474051057
48.95381266
-0.1110657951
0.1589177664
-0.06613202257
48.92730404
-0.123988028
0.1604582836
-0.06624623242
48.91067421
-0.1403826584
0.1553644544
-0.06608104751
48.90879336
-0.1627379917
0.1402650633
-0.06040342405
48.92252808
-0.1863363275
0.1166546374
-0.04482838451
48.92262882
-0.2162623479
0.05659205745
0.04235243606
47.92118993
-0.2391996138
-0.05203841879
1.156523743
47.51095651
-0.261257433
0.04219632737
0.4814494205
47.37247867
-0.2898991268
0.1294495567
0.1359596963
47.33684363
-0.3187812334
0.17882252
-0.0034918433
47.32677659
-0.3438217286
0.2079846965
-0.0487920145
47.31791891
-0.363488547
0.2299501687
-0.0641742338
47.30468505
-0.3802767722
0.2493067159
-0.07194566474
47.28814319
-0.3923384877
0.2614644702
-0.07504338384
47.27183422
-0.4056360343
0.2719503183
-0.07917712925
47.24290969
-0.4100967037
0.2831458794
-0.07774910898
47.18822829
-0.3627705402
0.2735115802
-0.09274494732
42.37799856
-0.2078014281
4.806134331
-0.03719120022
46.36390692
-0.3809267595
-4.004895513
-0.1503217905
-0.3405039624
2.635259452
48.07444716
-3.983941997
47.85962976
0.004185033591
-2.521702535
-49.37251638
4.020575513
45.07465582
0.009541905809
4.226820985
-1.420156107
51.96635255
0.009055651751
-7.809908072
0.7617434782
52.37859012
0.01469966663
-0.965519356
0.5124076475
52.26477676
0.02613822721
-0.1029354149
0.2181211123
52.23911394
0.03031251473
-0.005630477148
0.03554671831
52.24259491
0.02909940614
0.03796703054
-0.03573825737
52.25584968
0.02686963479
0.05334887034
-0.0599218878
52.27102417
0.02371622991
0.05978022445
-0.06757637551
52.28565813
0.01963403704
0.06278287978
-0.06912222867
52.29974557
0.01474139981
0.0644708449
-0.06900932785
52.31357773
0.00911889616
0.06581091569
-0.06860210787
52.32725868
0.002732609581
0.06707058585
-0.06811079559
52.34132294
-0.004994882615
0.0682511288
-0.06747332625
52.35593254
-0.01376000879
0.06954226503
-0.06687228718
52.37123983
-0.02329782889
0.07105405608
-0.06634587062
52.38746355
-0.03367516481
0.07282095965
-0.06583058908
52.40451441
-0.04484181082
0.07480605093
-0.06536217651
52.42232037
-0.05661686637
0.07716585577
-0.06505694606
52.44063663
-0.06875367804
0.08002545865
-0.06491321729
52.4589503
-0.08094827812
0.08355453679
-0.06491304597
52.4766195
-0.09269044053
0.0876661892
-0.06511295678
52.49277725
-0.1039758087
0.09258445016
-0.06541106825
52.50619128
-0.1138619191
0.09846882164
-0.06599634055
52.51576253
-0.1228031363
0.1054610676
-0.0668514831
52.51978686
-0.1297447211
0.1133978117
-0.06797480957
52.51708563
-0.1361136119
0.1225222435
-0.06936442553
52.50659459
-0.1408137346
0.1319497953
-0.07076415315
52.48829076
-0.1459155871
0.141333466
-0.07239847109
52.46291695
-0.1525258395
0.1497063183
-0.07371592947
52.43413923
-0.1615219634
0.1537105914
-0.07447762063
52.40413795
-0.1713031172
0.1512964253
-0.07398123926
52.38643424
-0.1908414896
0.1397635364
-0.07160260026
52.38197358
-0.2120515436
0.1162330988
-0.06246048536
52.38588692
-0.2364011907
0.07581430208
-0.0296644435
52.35612783
-0.2661098165
-0.004526250563
0.08413121753
52.20520868
-0.2917582308
-0.1697415413
0.3732175301
52.12141021
-0.3200816484
-0.06888354048
0.2115045945
52.0977832
-0.3534893082
0.0313060782
0.05590869953
52.10163506
-0.3886400763
0.08470655762
-0.01870171997
52.10994149
-0.4204670444
0.1137893916
-0.04545335787
52.11070855
-0.4418242366
0.1327391559
-0.05517308608
52.10458659
-0.4607919692
0.1470066911
-0.06037242508
52.09491178
-0.47649995
0.156581489
-0.06274818122
52.08227657
-0.4911476669
0.1646100666
-0.06646625111
52.07203885
-0.5027417015
0.1674292706
-0.06454969585
51.32986405
-0.5034684181
0.9620576314
-0.07918891591
42.37673272
-0.4623061143
9.233046227
-0.02541367818
46.6803205
-0.4246178215
-4.119066016
-0.140832152
-0.4101540023
2.666608834
48.08370021
-4.000338732
47.90798197
0.003372923107
-2.523525439
-49.38685619
4.003212001
45.06903563
0.006950390884
4.229546036
-1.38800803
51.98396697
0.01282537091
-8.007511204
1.088810336
53.0697617
0.01704126652
-1.823418672
0.7352824965
53.84502145
0.02099510174
-1.092714915
0.3225984772
53.81382941
0.02305917562
-0.03453480238
0.07298038588
53.81669338
0.02165547012
0.02923331287
-0.02465314279
53.8294149
0.01847753245
0.04990634792
-0.0542355418
53.84554703
0.01429187587
0.0567393196
-0.06344686404
53.86186578
0.009267734498
0.05918638628
-0.06513856595
53.8780253
0.003173596055
0.06012712092
-0.06471856705
53.89414517
-0.003691700416
0.06083266659
-0.06414164482
53.91032404
-0.01149482192
0.06154120913
-0.06349233516
53.92658637
-0.02076659234
0.0623812621
-0.0628715454
53.94311703
-0.0314001829
0.06336724756
-0.06225740232
53.96025424
-0.04334896769
0.06457499611
-0.06166072689
53.97818642
-0.05656459235
0.06610128256
-0.0611437126
53.99707397
-0.07095201257
0.06795372465
-0.06073076521
54.01695438
-0.08630697562
0.07022241015
-0.06041242804
54.03771286
-0.1023057633
0.07300823835
-0.06021434195
54.0589783
-0.1184730071
0.07639757782
-0.06013802176
54.08021125
-0.1341746289
0.08055321338
-0.06030172046
54.10028721
-0.1489717868
0.08554837187
-0.06062821309
54.11787107
-0.1617585043
0.0915042143
-0.06119145566
54.13150268
-0.1730925816
0.09881626857
-0.0621586014
54.13967619
-0.1814320987
0.106874677
-0.06336110309
54.14006743
-0.1881321471
0.1165464928
-0.06491969377
54.13199312
-0.1924561125
0.1258315461
-0.06611553255
54.11452102
-0.195896227
0.1354905817
-0.06803801806
54.08993971
-0.2004277655
0.1416424832
-0.06916007236
54.06093036
-0.2077953111
0.1444856077
-0.06920450663
54.03683562
-0.2186392709
0.1397158583
-0.06828662742
54.01917493
-0.2323394684
0.124627643
-0.06547103497
54.01720673
-0.2498597723
0.09748672441
-0.05771217144
54.03228246
-0.2713466611
0.05846670458
-0.03859879748
54.04752623
-0.2975340497
0.002902611437
0.01327510246
54.04744044
-0.324631346
-0.06096908452
0.09392588746
54.05678377
-0.3553312528
-0.0326686614
0.05857144788
54.07531917
-0.3895410339
0.009849519529
0.007664504688
54.09705247
-0.4263045146
0.03757793839
-0.02165128382
54.10893289
-0.4579655681
0.05961318723
-0.03399834077
54.11731352
-0.4890187801
0.07855879216
-0.03974886629
54.11706851
-0.5120145826
0.09540683103
-0.04394347997
54.11160004
-0.531512099
0.107105732
-0.04662934379
54.10909875
-0.5570701848
0.1196821196
-0.05126348074
53.14698896
-0.5604807503
1.067890435
-0.04804525146
51.56413958
-0.5565756962
1.697667824
-0.06171501625
42.3952814
-0.5070353852
9.219656116
-0.006071826176
46.70955212
-0.4533132109
-4.162838727
-0.1227382216
-0.436352184
2.618394001
48.12151002
-4.004153931
47.91551764
0.001988896035
-2.523561408
-49.39009041
3.999518443
45.07024199
0.00419799379
4.228258292
-1.380230064
51.92438089
0.008095163216
-8.08548482
1.23607631
52.99657351
0.01069745924
-1.898900678
0.8330520277
54.69553401
0.01293704416
-2.057182156
0.3662798975
55.09284114
0.01433008887
-0.4745069015
0.08592905391
55.09942854
0.01405369698
0.0231633565
-0.02214876325
55.11201065
0.0108755448
0.04877467156
-0.05375455468
55.12715348
0.006039839437
0.05692523772
-0.06381576396
55.14164229
0.0005743556656
0.06011417593
-0.06590931118
55.15552386
-0.006727536289
0.06167075405
-0.06565086035
55.16918791
-0.01501061208
0.06272606411
-0.06507083349
55.18311611
-0.02466433606
0.06371575654
-0.06447405691
55.19738803
-0.03590973021
0.06472096014
-0.06384932073
55.2122762
-0.04885907593
0.06580663761
-0.06323549137
55.22806413
-0.06353483723
0.06707678141
-0.06267841983
55.24499083
-0.07991449905
0.06860766576
-0.06218404409
55.26327779
-0.09788997505
0.07041721999
-0.06176583323
55.28309214
-0.1172302192
0.07254045963
-0.06143120215
55.30443668
-0.1375408287
0.07510799335
-0.06121710602
55.32707365
-0.1582326918
0.0782397245
-0.06111666822
55.3505031
-0.1785212224
0.08211019147
-0.06119273016
55.37365157
-0.1975235384
0.08692589818
-0.0615224259
55.39525866
-0.214164046
0.09286710555
-0.06206861102
55.4128458
-0.2277824148
0.100174099
-0.06307156998
55.42491934
-0.2374345474
0.1081531903
-0.06422462149
55.42807924
-0.2438085775
0.1181693763
-0.06565337409
55.42164116
-0.2462861505
0.1275853376
-0.06731758473
55.50643422
-0.2476622607
0.03578765627
-0.06881546038
55.48170462
-0.2496351258
0.1439094654
-0.06997361279
55.23242187
-0.2512132021
0.3627080636
-0.07000953227
55.06257473
-0.2549865441
0.274471888
-0.06827973425
55.03278704
-0.2623790695
0.124769383
-0.06494457562
55.03014246
-0.2737469101
0.08511215544
-0.05858257403
55.04024198
-0.2885849917
0.05429555503
-0.04715993576
55.07500477
-0.3074922732
0.003045199192
-0.02785232981
55.1221487
-0.3291330306
-0.03974148097
-0.002904705572
55.16366819
-0.3551191488
-0.03569614644
-0.006039092671
55.19456051
-0.3852078782
-0.0182690418
-0.01696260224
55.22070171
-0.4208711756
-0.009198912984
-0.02237960898
55.38377048
-0.4535103624
-0.1427352228
-0.02479392352
55.62354196
-0.4942890191
-0.2071854234
-0.02732162661
55.62708069
-0.5227225811
0.03783672349
-0.03067374523
55.52546168
-0.5429882794
0.1458772874
-0.03278918563
55.08827332
-0.5716520272
0.4889026374
-0.0371390568
53.1666807
-0.568316529
1.962269801
-0.03284654575
51.57513502
-0.5637159785
1.645558526
-0.0468766445
42.40059788
-0.5146113283
9.173095237
0.009014402896
46.71826391
-0.4587610898
-4.202462183
-0.1097576135
-0.4405847193
2.58376976
48.14227741
-4.003550871
47.91563995
0.001404562752
-2.523345559
-49.39050655
3.998796772
45.0674463
0.002917701412
4.228268731
-1.37879462
51.89499869
0.005368535115
-8.108617352
1.283791792
52.95605081
0.006819063451
-1.920778275
0.8636047277
54.6574599
0.00751305611
-2.074885162
0.3789002403
55.48041493
0.007602475173
-0.9056226523
0.08939544333
55.87875253
0.006809251239
-0.3693759408
-0.0217169716
55.89145648
0.003713818692
0.0476699912
-0.05321193926
55.90627182
-0.001742632184
0.05601152027
-0.06304409731
55.92138702
-0.008232159994
0.05877628747
-0.06508464232
55.93575861
-0.01619859188
0.05985806779
-0.06475823174
55.94975538
-0.02553663526
0.06063286103
-0.06410321001
55.96363185
-0.03651973561
0.06139280287
-0.06341343022
55.97762974
-0.04941238852
0.06218001371
-0.06267478824
55.99206531
-0.06441174387
0.06307053777
-0.06195296084
56.00731547
-0.08163549464
0.06413832893
-0.06128736859
56.0237683
-0.1011231351
0.06544234897
-0.06068608253
56.04178997
-0.1228126862
0.06706549527
-0.06016402864
56.06173508
-0.1464771326
0.06903495641
-0.05973274321
56.08379663
-0.1716534517
0.0714676968
-0.05941621384
56.1080276
-0.1975994458
0.07436371145
-0.05922754244
56.13405222
-0.2233324244
0.07795652682
-0.05916960916
56.16086631
-0.2473913766
0.08241138225
-0.05935740599
56.1874596
-0.2689079976
0.08799305101
-0.05984233693
56.210872
-0.2855116377
0.09501337557
-0.06069668441
56.22894715
-0.2968696194
0.1031660902
-0.06180647991
56.23727829
-0.3017795259
0.1130513227
-0.06341196856
56.23410744
-0.3017201872
0.1238141085
-0.06520991598
56.11046053
-0.2964722679
0.2391815932
-0.06672539212
55.99674152
-0.2911320959
0.2227213082
-0.06750687597
55.52313252
-0.2846963911
0.5742705327
-0.06718055951
55.21132603
-0.2808934043
0.4027569875
-0.06504626271
55.18032301
-0.2803763693
0.1101802455
-0.06118204178
55.16729187
-0.2819735255
0.07596955621
-0.05471449645
55.16566672
-0.2853283735
0.04451664581
-0.04615106125
55.20069926
-0.2915298802
-0.01576732912
-0.03523076836
55.26001609
-0.3017944305
-0.06179828516
-0.02486135057
55.31135712
-0.3204039755
-0.06562872154
-0.02043322749
55.3450015
-0.347365661
-0.05359815152
-0.01789292549
55.3723122
-0.3822783167
-0.05141837852
-0.0144915112
55.68198032
-0.4158463677
-0.3337606212
-0.01357709991
56.1494706
-0.46086743
-0.4851548062
-0.01576368716
56.24721594
-0.4938431946
-0.1076398872
-0.01899185904
55.95895553
-0.5160623137
0.2818879183
-0.02056132106
55.08640696
-0.548059148
0.8740101715
-0.02506201419
53.16949605
-0.5452171571
1.914582493
-0.02077650984
51.57994476
-0.5416458065
1.602268816
-0.03479193418
42.40953213
-0.4938471876
9.126326899
0.02331756932
46.72706626
-0.439978435
-4.240264104
-0.09605391994
-0.4237810388
2.544830131
48.16637087
-4.000938798
47.91596361
0.0006352614861
-2.523458661
-49.39044729
3.998711933
45.06802716
0.001410360628
4.227951646
-1.378507645
51.89033344
0.002595635895
-8.115508278
1.295975101
52.95014865
0.003051100192
-1.927044428
0.8709973739
54.65380837
0.002734290918
-2.080874726
0.3819939592
55.4786296
0.001970950915
-0.909388929
0.09019944994
56.27324044
2.03995392e-05
-0.7662812097
-0.02154052351
56.52144365
-0.002800471302
-0.1885725195
-0.05311612457
56.5349534
-0.00774965647
0.0554387916
-0.06294121112
56.54798785
-0.01481382559
0.05865514656
-0.06510758992
56.5602363
-0.02365594083
0.0600384038
-0.06482914196
56.57192692
-0.03408512508
0.06109462036
-0.0642363424
56.58333023
-0.04638772004
0.06207587239
-0.06361076118
56.59477003
-0.06094163574
0.06300941255
-0.0629195085
56.60663417
-0.0780198251
0.06398176624
-0.06223736347
56.61936086
-0.09783321237
0.06506436716
-0.06159287439
56.63346406
-0.1205262305
0.06630762903
-0.06100728928
56.64949238
-0.1461219368
0.06775163048
-0.06047026331
56.66803786
-0.174464338
0.06945654912
-0.06001439744
56.68959527
-0.2050583491
0.0714825873
-0.05963468026
56.71451301
-0.2370844242
0.07395382437
-0.05938620637
56.74266284
-0.2692940135
0.07707113944
-0.05925904147
56.773561
-0.2998772336
0.08099310972
-0.05940521541
56.80543335
-0.3272503667
0.08617461796
-0.0597045347
56.83566976
-0.3478836298
0.09260620915
-0.06047075767
56.86140329
-0.3618187302
0.1008539999
-0.0616386827
56.87664129
-0.3649282197
0.1112804107
-0.06337010455
56.63852186
-0.3587939572
0.3602932691
-0.06510073298
56.20500941
-0.3447011743
0.5486736152
-0.06693325263
56.00366653
-0.3313625078
0.3089074073
-0.06733586109
55.52278215
-0.3146018426
0.5779831992
-0.06719580744
55.20967969
-0.302972684
0.40001041
-0.06483093384
55.191584
-0.2959343891
0.09403448819
-0.06038373722
55.17699794
-0.2896260621
0.07555380074
-0.05331761373
55.18392297
-0.2826099104
0.03526207099
-0.04490904905
55.21828022
-0.2749030939
-0.01450298699
-0.03648430244
55.26548405
-0.2695254752
-0.04911988846
-0.03035737953
55.30451146
-0.2746846868
-0.06091807094
-0.02383272605
55.33131792
-0.2928481083
-0.06534329941
-0.01598690271
55.35393543
-0.3220287913
-0.07434040636
-0.008532510001
55.66231476
-0.3559601042
-0.3626476306
-0.00562398034
56.12896383
-0.4020806031
-0.5180318361
-0.007410120264
56.32141205
-0.4400054345
-0.2360688729
-0.01022404044
56.04839128
-0.4657772037
0.2343573988
-0.01162880735
55.07875571
-0.5029504867
0.9408051385
-0.01628566165
53.16772569
-0.5051036826
1.883530963
-0.01261996816
51.58554023
-0.5048358828
1.573004143
-0.02763261514
42.42033121
-0.4630392533
9.103156149
0.0312408827
46.73949572
-0.4133823922
-4.255089651
-0.09067198142
-0.3968680282
2.531363262
48.18138407
-4.000164904
47.91530479
0.0002854650633
-2.523387179
-49.39029458
3.998727095
45.06663112
0.0006563558503
4.227916154
-1.378488291
51.88621322
0.001081948594
-8.115975361
1.297907182
52.94374374
0.0008755431044
-1.927363111
0.8720083257
54.64577791
-0.0003544767051
-2.08131953
0.382374327
55.46890756
-0.00180411476
-0.9095951363
0.09024076803
56.26259181
-0.005038892366
-0.7672251633
-0.02139952542
56.74582871
-0.008272881344
-0.424498402
-0.05326581218
56.97462793
-0.01354339765
-0.159885741
-0.06311943224
56.98717067
-0.02058537357
0.05830742185
-0.06507828496
56.9983957
-0.02982654464
0.05964625565
-0.06470031238
57.00874669
-0.04091919162
0.06054257607
-0.06405910146
57.01852721
-0.054160405
0.06138512419
-0.06339252413
57.02802791
-0.0699940183
0.06220861601
-0.06265647451
57.03767743
-0.08880014683
0.06305786516
-0.06192660502
57.04799718
-0.1109010051
0.06397264284
-0.06122413212
57.05964177
-0.1365889654
0.06499048721
-0.06057189066
57.07337858
-0.1660271265
0.06610993299
-0.05994109266
57.09011379
-0.1991840192
0.06735763716
-0.05937269915
57.11073701
-0.2355986604
0.06875341605
-0.05883585992
57.1361509
-0.2745065422
0.07039970945
-0.05839106221
57.16703786
-0.3145981796
0.07247893552
-0.05806136834
57.12113045
-0.3527493228
0.1567171881
-0.05793744105
57.06109513
-0.3856990872
0.1762757262
-0.05779159814
57.06305944
-0.4110796917
0.1194504015
-0.05821871068
57.09806814
-0.4266647119
0.08895192215
-0.05911482715
57.12238534
-0.4284689835
0.1001319854
-0.06090877223
56.65426604
-0.4166086609
0.5890195162
-0.06308612836
56.22569271
-0.3927922573
0.5411654848
-0.06450200426
56.0253652
-0.3687253356
0.3031268705
-0.06543832298
55.54738169
-0.3414499459
0.5704945092
-0.06566534165
55.2346625
-0.3193143109
0.3923781596
-0.06331995864
55.21261021
-0.301554032
0.08618397065
-0.05851415805
55.19979959
-0.2867058078
0.06157241978
-0.05168530703
55.18988881
-0.2712046597
0.04187916444
-0.04337723008
55.21459962
-0.2505044481
-0.0147910202
-0.03432209694
55.25237954
-0.2275223486
-0.05337722144
-0.02640865104
55.28526962
-0.2155741768
-0.07400968324
-0.01799588208
55.30917815
-0.2210319918
-0.08764142776
-0.008088240523
55.33188425
-0.2436235765
-0.1021468281
0.001029024782
55.64274869
-0.2761406928
-0.3954973156
0.004808619182
56.11468715
-0.3208308309
-0.5565713863
0.003376882872
56.22153817
-0.3613258891
-0.1865413291
0.001004902244
56.14414872
-0.3917535462
0.003285352168
7.317878228e-05
55.07198126
-0.4259470419
0.9999602286
-0.004803469401
53.16624493
-0.4353052506
1.8350048
0.0009278697785
51.58116542
-0.4338412737
1.52723818
-0.01315699336
42.42434412
-0.3994895903
9.042675144
0.05059277597
46.74383042
-0.3568501748
-4.304295126
-0.07172434245
-0.3448030582
2.477975176
48.20614401
-3.992353996
47.91523914
-0.0001288595792
-2.523433247
-49.39014056
3.99874931
45.06666759
-0.0001258034829
4.227798938
-1.378444993
51.88626755
-0.0003627353171
-8.116436721
1.298281674
52.94382336
-0.001076885371
-1.927868484
0.8722652935
54.64559437
-0.002666819481
-2.082009231
0.3825507526
55.46832748
-0.004523177702
-0.9104475576
0.09043373981
56.26122949
-0.008335868389
-0.7684333521
-0.02117142851
56.74367749
-0.01182006907
-0.4258429487
-0.05305758729
57.18639486
-0.01768860107
-0.3753350599
-0.06323681886
57.19750737
-0.0243952379
0.05774759372
-0.06504991784
57.20652332
-0.03357921737
0.05938474719
-0.0646476775
57.21428372
-0.04495387991
0.06034525392
-0.06407058388
57.22115422
-0.05874600664
0.06116136292
-0.06344584943
57.22738527
-0.07541431472
0.06192620378
-0.06273652864
57.23340539
-0.09544905616
0.06264112641
-0.06201189432
57.23983578
-0.119327031
0.06330213665
-0.0613060595
57.24745796
-0.1475073772
0.0639120154
-0.06061534413
57.25728472
-0.1803513825
0.06441955418
-0.05992160553
57.27058863
-0.2180478316
0.06479040896
-0.0592300401
57.28910995
-0.2605277298
0.06497475189
-0.05856655503
57.23276065
-0.3066812378
0.1464529684
-0.05792855247
57.16716209
-0.3544543896
0.1626216476
-0.05716654398
57.04826797
-0.4010875382
0.2238406474
-0.05660808997
56.85409129
-0.4419565878
0.3063796077
-0.05594533608
56.80967779
-0.4733564699
0.1623099508
-0.05561974268
56.85854423
-0.4920710237
0.07280613519
-0.05626654215
56.89629885
-0.4924572224
0.0844596273
-0.05822602622
56.67578248
-0.4734743685
0.3381529205
-0.0607714432
56.25279735
-0.4393567708
0.5325020222
-0.06295275048
56.05289264
-0.4009377449
0.2966594282
-0.06454404279
55.57864671
-0.3638204659
0.56137681
-0.0647623475
55.27131856
-0.3348427194
0.3847425704
-0.06188839018
55.26375056
-0.3142302364
0.07692563417
-0.05668399328
55.27409169
-0.2916654442
0.04284152363
-0.0482255664
55.268764
-0.2611944712
0.03425060874
-0.03893745588
55.28881827
-0.2133788012
-0.02477782296
-0.03240503228
55.29259233
-0.1579042724
-0.04548463056
-0.02791154014
55.29611393
-0.1248428277
-0.0749648143
-0.0192903362
55.29835481
-0.1163834589
-0.1025569627
-0.004338782957
55.31076455
-0.1367004004
-0.1247261491
0.005387796978
55.58697369
-0.1689908484
-0.3941067307
0.01074181358
55.83362792
-0.2137519577
-0.36432957
0.01059226561
55.85340653
-0.2585938747
-0.131612835
0.009096392731
55.87724836
-0.3008795352
-0.1222016125
0.007479491283
55.06441929
-0.3361511168
0.720374134
0.002653402513
53.16940856
-0.3629041306
1.816660338
0.005944578277
51.59347452
-0.3684207271
1.5203875
-0.009877163362
42.44014222
-0.346844858
9.049184531
0.05149923749
46.76014817
-0.3067957252
-4.296659006
-0.07340232387
-0.2937481121
2.486246387
48.21891141
-3.996064993
47.91478193
-0.0003114823341
-2.52339431
-49.38997087
3.998766238
45.06581798
-0.0004869473619
4.227771022
-1.378445722
51.88457283
-0.001179421863
-8.11613133
1.298193446
52.94101791
-0.002132260641
-1.927564593
0.8721750597
54.64168119
-0.00405075523
-2.081804524
0.3825253845
55.4630198
-0.006073715374
-0.9102030052
0.09041515876
56.25448537
-0.01028179647
-0.768399545
-0.02111982999
56.73530014
-0.01375171167
-0.4258540606
-0.05302878332
57.17607086
-0.01986168017
-0.3753379122
-0.06325943924
57.18539093
-0.02638474228
0.0577086794
-0.06503892693
57.19236365
-0.03534077162
0.05936650523
-0.06457732598
57.19770862
-0.04662203579
0.0602955586
-0.06397198311
57.20173129
-0.06049586672
0.06103073413
-0.06330313176
57.20463621
-0.07745128505
0.06169281802
-0.06256032373
57.2068015
-0.09808437678
0.0622456006
-0.06177511945
57.20887973
-0.1230445101
0.06263903149
-0.06099932593
57.21176406
-0.1530017344
0.06280115239
-0.06019064818
57.21671515
-0.1885346511
0.06259002755
-0.05935735433
57.19980444
-0.230261152
0.0876039667
-0.05847944038
57.12792174
-0.2782704447
0.1471195355
-0.0574936167
56.92511674
-0.331137985
0.2835584557
-0.05629625277
56.71764492
-0.3868681957