/*--------------------------------*- C++ -*----------------------------------*\
| =========                 |                                                 |
| \\      /  F ield         | OpenFOAM: The Open Source CFD Toolbox           |
|  \\    /   O peration     | Version:  2.2.1                                 |
|   \\  /    A nd           | Web:      www.OpenFOAM.org                      |
|    \\/     M anipulation  |                                                 |
\*---------------------------------------------------------------------------*/
FoamFile
{
    version     2.0;
    format      ascii;
    class       volVectorField;
    location    "9";
    object      U;
}
// * * * * * * * * * * * * * * * * * * * * * * * * * * * * * * * * * * * * * //

dimensions      [0 1 -1 0 0 0 0];

internalField   nonuniform List<vector> 
86889
(
(15.034964 0.006002040866 0.004879425788)
(15.05344221 0.004763218494 0.006236866459)
(15.05654334 0.00196832133 0.006447726163)
(15.0618565 0.001679524594 0.004623548142)
(15.0691313 0.0003848942177 0.002493734771)
(15.07646588 -0.001653870808 0.0005313656956)
(15.08196199 -0.003165968895 -0.0009358269014)
(15.08652639 -0.004168069422 -0.002045706767)
(15.090899 -0.004899474506 -0.002933616518)
(15.09497604 -0.005405516298 -0.003601602741)
(15.09884079 -0.005729989347 -0.004081793644)
(15.10244977 -0.0059163945 -0.004387858227)
(15.10600492 -0.006016693167 -0.004556762984)
(15.10945958 -0.006075128485 -0.004629223322)
(15.11285646 -0.006119252638 -0.004609900217)
(15.11625608 -0.006161088983 -0.004494828006)
(15.11969013 -0.00622388672 -0.004304609908)
(15.12311431 -0.006321122464 -0.004031950089)
(15.12650091 -0.006442926812 -0.003696554179)
(15.12988187 -0.006578178375 -0.003262413151)
(15.13309384 -0.006727747899 -0.002737494107)
(15.13623862 -0.006885956429 -0.002101830088)
(15.13891377 -0.007013594142 -0.001408701089)
(15.14116913 -0.007103705487 -0.0005463311424)
(15.14249134 -0.007159469869 0.0004409994708)
(15.1427067 -0.007178358671 0.001484146615)
(15.14168623 -0.00709565616 0.00284422909)
(15.13914123 -0.007112753645 0.004221441338)
(15.13491403 -0.006959716169 0.005666481164)
(15.12913026 -0.007329770532 0.007080678427)
(15.12181275 -0.007702211708 0.008277253855)
(15.11230805 -0.008267674089 0.009674815452)
(15.10044259 -0.009372092322 0.01088573926)
(15.08653991 -0.01072769213 0.01325698735)
(15.07518195 -0.01294775694 0.01561102747)
(15.07271743 -0.0125149922 0.01502789585)
(15.07852794 -0.02019153666 0.01830523093)
(15.0864836 -0.0229840643 0.01998680282)
(15.09026256 -0.02327693526 0.02077710983)
(15.09080605 -0.02386246264 0.02098994782)
(15.08703583 -0.02532797618 0.02289159729)
(15.08155652 -0.02643517569 0.026973624)
(15.07463486 -0.02690855932 0.03202244314)
(15.06825288 -0.02718475001 0.03599426753)
(15.05788342 -0.02777807216 0.03968530792)
(15.05305535 -0.02832426294 0.04135863705)
(15.03416756 -0.02880111043 0.04426578264)
(15.05543006 -0.03520877879 0.04032839636)
(14.91727992 -0.04076685844 0.03114074113)
(15.28835751 -0.1418344293 -0.07252469421)
(15.01777534 0.007422479735 0.005852262206)
(15.02839868 0.01088508486 0.005890667471)
(15.03535324 0.01375304413 0.005862475382)
(15.04237992 0.01790766237 0.005815553453)
(15.04893132 0.02111660166 0.005137860928)
(15.05469621 0.02285515094 0.004259012084)
(15.05955738 0.02362144277 0.003596205013)
(15.06371299 0.02380883321 0.00318085376)
(15.0675324 0.02362178952 0.00290341885)
(15.0711294 0.02317543282 0.002707270408)
(15.07454941 0.02253442673 0.002595270943)
(15.07780999 0.02174236563 0.002568038841)
(15.08099628 0.02081742548 0.002611521169)
(15.08418118 0.01977957268 0.002710732588)
(15.08743429 0.01863627642 0.002862317917)
(15.09080997 0.01740329865 0.003070203953)
(15.09435154 0.01609596636 0.003323133089)
(15.09808435 0.01471993239 0.003639650084)
(15.10199334 0.01328577924 0.003990827962)
(15.10605039 0.01182376877 0.004397134382)
(15.11020163 0.01036999345 0.004856720672)
(15.11431125 0.00895377466 0.005391651059)
(15.11836806 0.007549844402 0.006058355615)
(15.12191418 0.006252653474 0.006824483247)
(15.12490783 0.004958559794 0.007789468602)
(15.12687187 0.003772660093 0.008925357052)
(15.12765625 0.002739714671 0.01023589541)
(15.12703431 0.001649074291 0.01155835903)
(15.12488963 0.0004710086481 0.01303931798)
(15.12113066 -0.0009754076384 0.01420848236)
(15.11621266 -0.00295438977 0.01543884034)
(15.11024283 -0.005897526154 0.01642263131)
(15.10490661 -0.009414163425 0.01750118672)
(15.09888343 -0.01494361198 0.017939846)
(15.09789087 -0.01967167932 0.01930786303)
(15.09057279 -0.02317781754 0.0140225141)
(15.11355679 -0.03167152432 0.01671777299)
(15.12603084 -0.03571465225 0.02052356224)
(15.13144961 -0.04044660407 0.02336862574)
(15.13184994 -0.04538952737 0.02355408671)
(15.12956729 -0.05018900659 0.02405008666)
(15.12668426 -0.05391730599 0.02693295769)
(15.12308133 -0.05675026453 0.03084574656)
(15.11953183 -0.0586529034 0.03383214818)
(15.11336862 -0.06045868788 0.0364667714)
(15.10981612 -0.06176028234 0.03834646391)
(15.0970104 -0.06336624636 0.03968763425)
(15.11158864 -0.06461921932 0.03919686226)
(15.02821186 -0.0796304456 0.03704493204)
(15.20979502 -0.05973347006 -0.03695812526)
(15.01641874 0.003324290092 0.006041777702)
(15.02265174 0.004867553235 0.007287816203)
(15.02746778 0.005895760289 0.0112798094)
(15.03395298 0.006494789305 0.008501480662)
(15.040734 0.006793575049 0.004450114006)
(15.04678153 0.006432202653 0.002520087826)
(15.05158187 0.005998225849 0.002716820394)
(15.05632233 0.005396485929 0.003184217675)
(15.06109152 0.004637361628 0.003272253955)
(15.06582694 0.003831907497 0.003164146205)
(15.07040946 0.003003388815 0.003040749264)
(15.0748367 0.002091148509 0.002962969872)
(15.07923095 0.001032822248 0.002936188543)
(15.08363304 -0.0002141764495 0.002969719832)
(15.08810879 -0.001657873052 0.003073511866)
(15.09271021 -0.003285987807 0.003236424621)
(15.09746082 -0.005078588655 0.003444332876)
(15.10238111 -0.007010565318 0.003695791393)
(15.10750226 -0.009047704193 0.004003756674)
(15.11282371 -0.0111442191 0.004381734355)
(15.11827161 -0.01324909956 0.004841280721)
(15.12374432 -0.01529989859 0.005375705953)
(15.12908776 -0.0172673511 0.006057578245)
(15.134085 -0.01909323052 0.006838096635)
(15.13840978 -0.02071220368 0.007750230872)
(15.1418326 -0.02218410894 0.008846403442)
(15.14391433 -0.02351124435 0.01010121187)
(15.14442225 -0.02470501664 0.01133233105)
(15.14325926 -0.02603297286 0.01264605812)
(15.1403114 -0.02778546375 0.01380820386)
(15.13593108 -0.03014759786 0.01499647924)
(15.13058935 -0.03359197075 0.01568502627)
(15.12571646 -0.03780678297 0.01620532257)
(15.12107971 -0.04378958573 0.01554744075)
(15.12098712 -0.04934848196 0.01580286946)
(15.11506827 -0.05651745983 0.01000419301)
(15.13681648 -0.0624098188 0.009002254537)
(15.14884022 -0.06863931511 0.01128606322)
(15.15509981 -0.07554860636 0.0128005798)
(15.15749172 -0.08279726086 0.01270105942)
(15.15803146 -0.08936966094 0.01351624131)
(15.15843456 -0.09428034033 0.01644522462)
(15.15778331 -0.09850216206 0.02033284162)
(15.1570424 -0.1012020736 0.02297256684)
(15.15226712 -0.1045572191 0.02570967383)
(15.1538308 -0.1066325995 0.02678178031)
(15.13182091 -0.1077258817 0.027842297)
(15.17805748 -0.1111480934 0.02490696242)
(15.04958204 -0.1242460956 0.0210587955)
(15.21650636 -0.1328284646 -0.05352547195)
(15.01613615 0.002214460067 0.005755423173)
(15.02339115 0.004361195379 0.006235318003)
(15.02844614 0.0075596473 0.01023471428)
(15.03725507 0.01013216402 0.007669568587)
(15.04389031 0.01222497528 0.006411479753)
(15.04941211 0.01317450701 0.005155467698)
(15.05485363 0.01349794351 0.004528959403)
(15.05919441 0.01344467453 0.005432203851)
(15.06347835 0.01295955842 0.006466843323)
(15.06777573 0.01212814613 0.006947767365)
(15.07195936 0.01106080968 0.007140621869)
(15.07593138 0.009808531169 0.007282512036)
(15.07984763 0.008333218259 0.007417543551)
(15.08379951 0.006628301465 0.007503366618)
(15.08790133 0.004680814689 0.007592770901)
(15.09222382 0.002454483318 0.007726591248)
(15.09682022 -5.091014179e-05 0.007907808039)
(15.10172894 -0.002805673404 0.008142301833)
(15.10695491 -0.005753927631 0.008442846853)
(15.11247611 -0.008842428145 0.008827643221)
(15.11825033 -0.01199994521 0.009291635163)
(15.12412249 -0.01510442384 0.009848422715)
(15.13009464 -0.01814326107 0.01053941383)
(15.13564174 -0.02085980533 0.0113516619)
(15.14082158 -0.02336574664 0.01235231838)
(15.14484649 -0.02541884617 0.01344046997)
(15.14772449 -0.02735703899 0.01481358453)
(15.14868246 -0.02885122681 0.01607599124)
(15.14784288 -0.03050998463 0.01746829634)
(15.14494291 -0.03258560055 0.01874871169)
(15.14024608 -0.03535510166 0.01969622662)
(15.13447848 -0.03917340075 0.02007137115)
(15.12885385 -0.04405583763 0.01950166608)
(15.12436769 -0.0503915448 0.01759664579)
(15.12258578 -0.05730759615 0.01450914903)
(15.12245894 -0.06654222437 0.008851737178)
(15.12903514 -0.07329876347 0.005352419976)
(15.13631031 -0.08118462251 0.003523453209)
(15.14157805 -0.09062438625 0.001258569656)
(15.14550872 -0.1008032281 -0.0006774109374)
(15.14892964 -0.1091225179 -0.0005837241222)
(15.15217702 -0.1155960034 0.001331693414)
(15.15423508 -0.1208985399 0.003715403445)
(15.15519903 -0.125152499 0.005757979887)
(15.15320265 -0.1293973095 0.007663072743)
(15.154881 -0.1333474388 0.009484914792)
(15.13974654 -0.1372377468 0.01085192338)
(15.18029935 -0.1407076078 0.008134268614)
(15.04921225 -0.1461810729 0.00873211701)
(15.21720218 -0.146850429 -0.06307929597)
(15.01618663 0.001414143069 0.006017248533)
(15.0222886 0.002664497107 0.006207150422)
(15.0262285 0.004056215212 0.01044756981)
(15.03449365 0.004828817044 0.007794752807)
(15.03993588 0.005483378751 0.005768403331)
(15.0440478 0.005534504136 0.004688588306)
(15.04838805 0.00461398858 0.003516780215)
(15.05273138 0.003443715673 0.004068659848)
(15.05708118 0.002163335692 0.005029185719)
(15.06159732 0.0006761338111 0.005411262218)
(15.06617315 -0.001066890976 0.005444838215)
(15.07069636 -0.003073020595 0.005463671727)
(15.07518262 -0.00535860322 0.005475602192)
(15.07969252 -0.007895334372 0.005514715025)
(15.08427223 -0.01067803999 0.005564376147)
(15.08898558 -0.01372683829 0.005631943929)
(15.09391808 -0.01705044833 0.00574263738)
(15.09914377 -0.02064739945 0.00591645934)
(15.10471464 -0.02448466154 0.006165015633)
(15.11064321 -0.02849149911 0.006496158619)
(15.11692015 -0.03257129855 0.006917781202)
(15.12340413 -0.03656798732 0.007439845999)
(15.13013275 -0.04042838373 0.008099616986)
(15.13646585 -0.04379836658 0.008897050577)
(15.14265152 -0.04685627493 0.009909847141)
(15.14753252 -0.04916932033 0.01099706637)
(15.15136444 -0.05117267579 0.01244127909)
(15.15283313 -0.05253656344 0.01377172691)
(15.15227321 -0.05381546397 0.01513172433)
(15.14934637 -0.05537757878 0.01631376693)
(15.14438485 -0.05759772237 0.01710116598)
(15.13815673 -0.06082278088 0.01691726913)
(15.13196568 -0.06501102052 0.01525350457)
(15.1270282 -0.07025187005 0.01160101287)
(15.12440978 -0.07639408072 0.006599669235)
(15.12425638 -0.0837619908 -0.0001224233477)
(15.12666864 -0.09050932349 -0.0060491872)
(15.13023782 -0.09827781109 -0.0113751876)
(15.13417233 -0.1071830766 -0.01606644834)
(15.13919944 -0.1167521977 -0.01880258164)
(15.14478574 -0.1246645393 -0.01891207319)
(15.1508203 -0.1320206555 -0.01746342286)
(15.15471326 -0.1375027224 -0.01581892536)
(15.15770354 -0.1424645359 -0.01412263025)
(15.1556911 -0.1472086732 -0.0122826285)
(15.16450786 -0.1511599041 -0.01051193639)
(15.14470718 -0.1576100643 -0.008190558537)
(15.18547385 -0.15876178 -0.01144973893)
(15.05496444 -0.1634671227 -0.009364723606)
(15.22333025 -0.1657540349 -0.08008300675)
(15.01626905 0.001069754717 0.005988942178)
(15.02258408 0.002094077227 0.006005014203)
(15.02696373 0.003661992124 0.00995471417)
(15.03590311 0.004740378331 0.007211298925)
(15.04212959 0.005955389607 0.004863322351)
(15.04593017 0.006842561033 0.003487920104)
(15.04996135 0.007121600568 0.002864718231)
(15.05423945 0.006695933872 0.004015244441)
(15.05851821 0.005894177391 0.005372215118)
(15.06255687 0.004912466143 0.005939881913)
(15.06643177 0.003693475668 0.006099400166)
(15.07018756 0.00210345087 0.006174753594)
(15.07391431 6.684189075e-05 0.006247221379)
(15.07773266 -0.002447293675 0.006320980829)
(15.08171031 -0.005441202248 0.006408023421)
(15.08590666 -0.008901359322 0.006525702411)
(15.09039504 -0.01281466852 0.006681512899)
(15.09525378 -0.01715449875 0.006887778238)
(15.10055514 -0.02186905333 0.007156604392)
(15.10634709 -0.02686924183 0.007499144818)
(15.11264396 -0.03202400794 0.007930089818)
(15.11936988 -0.03714805686 0.008472426279)
(15.12644957 -0.04205939231 0.009133661431)
(15.1334824 -0.0464564094 0.009963280235)
(15.1403465 -0.05026414927 0.01097906521)
(15.1461319 -0.05310762689 0.01215604688)
(15.15067244 -0.05520919792 0.01367581862)
(15.15273614 -0.05642306747 0.01516734495)
(15.15190583 -0.05713570845 0.01651292182)
(15.14902883 -0.05802310524 0.017672744)
(15.14409515 -0.05942853443 0.01815048345)
(15.13660036 -0.06169313195 0.01731470189)
(15.12947201 -0.06452298174 0.01450550618)
(15.12359312 -0.06841199412 0.008878359686)
(15.12007652 -0.0734842331 0.001277704638)
(15.11886921 -0.08003230141 -0.006940401899)
(15.1196269 -0.08752846796 -0.01489617035)
(15.12152123 -0.09606393858 -0.02285775594)
(15.12437962 -0.1052041232 -0.02972419275)
(15.12975344 -0.1150655723 -0.03438430294)
(15.13582194 -0.12371585 -0.03550994366)
(15.14394662 -0.1329018436 -0.03477832368)
(15.14990636 -0.1397318863 -0.03385833679)
(15.15426047 -0.1451750567 -0.03289697821)
(15.15408043 -0.154025805 -0.0303623123)
(15.16158011 -0.1579973373 -0.02864146107)
(15.14370973 -0.1634371745 -0.02576186088)
(15.18556438 -0.1647466812 -0.02873204774)
(15.05723543 -0.1696232565 -0.02358374275)
(15.22832873 -0.1712237583 -0.09369691196)
(15.01623646 0.0006463770503 0.00604180651)
(15.02214631 0.001225611469 0.00600232899)
(15.02563642 0.001907335153 0.01004430802)
(15.03443989 0.002203081098 0.007162090973)
(15.03935723 0.002255042126 0.004586160701)
(15.04316299 0.002134571727 0.002327450185)
(15.04547822 0.001784730597 0.001287120571)
(15.04891999 0.0006062484563 0.002572324709)
(15.05282237 -0.001196877821 0.004303991084)
(15.05699728 -0.003291716186 0.005074533408)
(15.06111959 -0.005623619451 0.005268716171)
(15.06496039 -0.008193708501 0.005356764235)
(15.06868258 -0.01110821357 0.005428752936)
(15.0724144 -0.01443841678 0.005483943115)
(15.07624435 -0.01824042575 0.005545996589)
(15.08025006 -0.02254951774 0.005636252645)
(15.08452936 -0.02738395939 0.005762956958)
(15.08919392 -0.03273642472 0.005936666295)
(15.09435635 -0.03856176748 0.006166394077)
(15.10011245 -0.04476638318 0.0064623502)
(15.10652542 -0.05119245188 0.006840837441)
(15.11360413 -0.05762062961 0.007331034629)
(15.12122989 -0.06374552023 0.007946190439)
(15.12918697 -0.06927328484 0.00873964076)
(15.13715929 -0.07388116181 0.009749772058)
(15.14425488 -0.07716241117 0.01097974037)
(15.15006273 -0.07913187431 0.01245997709)
(15.15322922 -0.07965330686 0.01422257043)
(15.15348648 -0.07943961424 0.0154013309)
(15.15035874 -0.07907283313 0.01635814985)
(15.14434231 -0.0787673757 0.01657127571)
(15.13651059 -0.07909474062 0.01500590582)
(15.12854894 -0.07997175517 0.01085917958)
(15.12170674 -0.081417701 0.002917551314)
(15.1167253 -0.08321612783 -0.007357056237)
(15.11352688 -0.08555398887 -0.01865257362)
(15.11234633 -0.08851798129 -0.02827187193)
(15.11294454 -0.09336016163 -0.03751193857)
(15.11532442 -0.1002092838 -0.04582297751)
(15.1215166 -0.1093425162 -0.05208750719)
(15.12743611 -0.1174205685 -0.05370536772)
(15.1384866 -0.1282657076 -0.05298256741)
(15.14473824 -0.1354230319 -0.05218763888)
(15.15201527 -0.1414517298 -0.05159388883)
(15.15181926 -0.151604027 -0.04839409483)
(15.16006834 -0.1550895717 -0.04665418397)
(15.14428168 -0.1600964601 -0.04330687941)
(15.18697372 -0.161159268 -0.0463704704)
(15.06022236 -0.1646625975 -0.03900486819)
(15.23378513 -0.165630314 -0.1088714169)
(15.01629872 0.0004501170666 0.006025997358)
(15.02221062 0.0008920835141 0.005948314845)
(15.02617807 0.001497695077 0.009869292698)
(15.03464169 0.001865433265 0.007039351298)
(15.04043384 0.002149324479 0.004166411803)
(15.04378676 0.002314315889 0.001831360147)
(15.04693563 0.002309781068 0.0004275441292)
(15.04910345 0.002040229744 0.001550195339)
(15.05268872 0.001216223034 0.003569694079)
(15.05638458 -0.0001811567443 0.004724648504)
(15.05987523 -0.00201629983 0.005117865407)
(15.06312113 -0.004292271003 0.005297369207)
(15.06619623 -0.007068828781 0.005431674101)
(15.06923748 -0.01042910954 0.005541153649)
(15.07235551 -0.01443567097 0.005649216936)
(15.07564871 -0.01913113165 0.005770786729)
(15.07923339 -0.02454433391 0.005917222744)
(15.08325147 -0.03068027482 0.006093494884)
(15.08786129 -0.03750145511 0.006314226559)
(15.09322614 -0.04490643962 0.006586158345)
(15.09947743 -0.05270962184 0.006928440367)
(15.10672538 -0.0606293267 0.007360020771)
(15.11482981 -0.0682186046 0.007900964802)
(15.12395364 -0.07527379546 0.008644445203)
(15.13288733 -0.08076376529 0.009575664438)
(15.14205885 -0.08478787849 0.01085757355)
(15.14909332 -0.08648808673 0.01236212327)
(15.15425728 -0.08635042924 0.01374360382)
(15.15518244 -0.08439003467 0.01549180854)
(15.15222311 -0.08234826662 0.01645151966)
(15.14543127 -0.07937181526 0.0165776437)
(15.13712708 -0.07722556942 0.01442147936)
(15.12855274 -0.07582865637 0.008814451989)
(15.12197527 -0.07505857441 -0.001158753996)
(15.11779902 -0.07506426468 -0.01372360516)
(15.11526476 -0.07592011536 -0.02769224258)
(15.11296763 -0.0777996486 -0.03941605356)
(15.11038355 -0.08175530033 -0.05049978234)
(15.10961038 -0.08800637473 -0.06014832431)
(15.1137091 -0.09652420925 -0.06707780049)
(15.11943571 -0.1050398336 -0.06886296947)
(15.13021385 -0.1162323669 -0.06790495085)
(15.13746612 -0.1248314208 -0.06662908831)
(15.14573887 -0.1312417337 -0.06592707593)
(15.14773917 -0.1424044862 -0.06221693421)
(15.15644396 -0.1469073446 -0.0601407308)
(15.14401981 -0.1533134922 -0.05568399164)
(15.18851567 -0.155396156 -0.05826187142)
(15.06330693 -0.1604590262 -0.0482584227)
(15.23888515 -0.1621834676 -0.1176409657)
(15.01631672 0.0002074949276 0.00604790761)
(15.02189938 0.0004064739376 0.005954514151)
(15.02572126 0.0005523562067 0.009923693486)
(15.03341638 0.0004901705616 0.007128862167)
(15.0389957 0.0001111671693 0.00404929749)
(15.04157523 -0.000384112109 0.001683090666)
(15.04459104 -0.00141183041 -6.404659708e-05)
(15.04614656 -0.00234242928 0.0009686077352)
(15.04899032 -0.003816958614 0.002967220449)
(15.05238374 -0.005848393101 0.00425011094)
(15.05567441 -0.008389275066 0.004808311879)
(15.05866564 -0.01132504548 0.005028142688)
(15.06137346 -0.01474144644 0.005152712912)
(15.06394605 -0.01875855623 0.00525356582)
(15.06651674 -0.02347128424 0.005355431909)
(15.06919928 -0.02895811408 0.005460956492)
(15.07212898 -0.03528659757 0.005580263485)
(15.07548415 -0.04249760478 0.005710457079)
(15.07948474 -0.05058920148 0.005861626469)
(15.08436758 -0.05946884575 0.006029525416)
(15.09040948 -0.06895551346 0.006242820822)
(15.09774185 -0.07874044868 0.006518384925)
(15.10676752 -0.08828884885 0.006885149582)
(15.11710563 -0.09697730002 0.007420830843)
(15.12762432 -0.1039632146 0.008173281287)
(15.13960572 -0.1088555403 0.00939160046)
(15.14812726 -0.1102426854 0.01074173301)
(15.15667884 -0.1089753014 0.01231034005)
(15.15897582 -0.1049522409 0.01417463356)
(15.15645962 -0.1006994979 0.01544477266)
(15.14964561 -0.0952877616 0.01552509672)
(15.14157117 -0.09135625166 0.0130620153)
(15.13158813 -0.0873743516 0.005693338296)
(15.12312986 -0.08258483194 -0.007252464817)
(15.11664738 -0.07683341769 -0.02411093198)
(15.11156347 -0.07010984616 -0.04318795152)
(15.10719896 -0.0641239537 -0.05966230316)
(15.10340356 -0.0625570542 -0.07332283827)
(15.10202408 -0.06610878229 -0.08419143827)
(15.10554092 -0.07327389326 -0.09153351636)
(15.11176843 -0.08241976839 -0.09344689514)
(15.12256934 -0.09450344324 -0.09217700022)
(15.13189352 -0.1048331746 -0.09097937322)
(15.13976928 -0.1125071597 -0.09017787068)
(15.14422704 -0.1249254861 -0.08639523692)
(15.1530554 -0.1297832297 -0.08456820136)
(15.14213068 -0.1349762501 -0.07987691976)
(15.18725691 -0.136281451 -0.08277861074)
(15.064402 -0.139673126 -0.06930888988)
(15.24449656 -0.1404917708 -0.1381607681)
(15.01632423 0.0001003708851 0.006034258204)
(15.02195266 0.000224433252 0.005935848192)
(15.02579891 0.0003550800003 0.009877334523)
(15.03355847 0.0003717712231 0.007053086765)
(15.03909849 0.0002309851273 0.003929760412)
(15.0416151 -1.389069406e-05 0.001480031287)
(15.0444593 -0.000648619353 -0.0004126325349)
(15.04585786 -0.001298139647 0.0005090341419)
(15.04813723 -0.002456633598 0.002518790636)
(15.05092638 -0.003931963716 0.003844919003)
(15.05368269 -0.006053511144 0.004593441866)
(15.05611579 -0.008716212688 0.004922131204)
(15.05815109 -0.01198374655 0.005086787972)
(15.05993701 -0.0159734442 0.005212819158)
(15.061628 -0.02080046359 0.005333737174)
(15.06335233 -0.02657448839 0.00544229936)
(15.06526453 -0.03339965522 0.005539941223)
(15.06757365 -0.0413554908 0.005617506826)
(15.07059282 -0.05048136621 0.005676292675)
(15.07457568 -0.06074284975 0.005706438236)
(15.08027688 -0.07197841612 0.005718218515)
(15.08763899 -0.08386840407 0.005729743807)
(15.09716084 -0.09568759735 0.00582822213)
(15.10909297 -0.1064484339 0.006088996823)
(15.12198033 -0.1151768111 0.006686240711)
(15.13590154 -0.1208110361 0.007671667136)
(15.14939993 -0.1220644158 0.009189360773)
(15.15939108 -0.1190003967 0.01095365219)
(15.16488558 -0.1119277395 0.01301574677)
(15.16239256 -0.1031185601 0.01472641219)
(15.15577265 -0.09354090709 0.01516029072)
(15.14626737 -0.08609144387 0.012218011)
(15.13842783 -0.08155511115 0.005253573293)
(15.13351578 -0.07851423805 -0.006910951896)
(15.13140877 -0.07567942927 -0.02188095642)
(15.12918551 -0.07051789734 -0.03784833907)
(15.12208322 -0.06244590433 -0.05490534369)
(15.1106398 -0.05507366756 -0.07186894845)
(15.09967951 -0.05194865883 -0.09014090516)
(15.0988103 -0.05506481202 -0.09883179969)
(15.10278625 -0.06202029205 -0.1015925057)
(15.11193385 -0.07235825804 -0.101508972)
(15.1218274 -0.08297896289 -0.100987449)
(15.12966135 -0.09255495385 -0.09944862384)
(15.14005806 -0.1026081314 -0.09651237865)
(15.14885239 -0.1118659686 -0.09206269097)
(15.14328678 -0.1179681696 -0.08694286425)
(15.19050034 -0.1220312488 -0.08846056035)
(15.06871953 -0.1261994602 -0.07240106445)
(15.24917188 -0.127578639 -0.1407308834)
(15.01632172 -5.194725329e-05 0.006042866642)
(15.02178607 -6.672700058e-05 0.005936737516)
(15.02553342 -0.0002582222006 0.009907528788)
(15.03293024 -0.000503094786 0.007099790134)
(15.03829736 -0.001058647232 0.003908663584)
(15.04039369 -0.001614015649 0.001486992375)
(15.04299001 -0.002778636512 -0.0004948255032)
(15.04394914 -0.00371031961 0.000383862786)
(15.0458247 -0.005336308022 0.002368846084)
(15.04817062 -0.007080789741 0.003695102467)
(15.05043375 -0.009470352668 0.004473287563)
(15.05232818 -0.01243489293 0.004820733284)
(15.05373269 -0.01603240144 0.004978896815)
(15.05476576 -0.02038180004 0.005091726448)
(15.05557223 -0.02562542116 0.005189898415)
(15.0562788 -0.03191624901 0.005260717042)
(15.05705518 -0.03941318137 0.005289030961)
(15.05812661 -0.04825249931 0.005253720622)
(15.05991326 -0.05855601096 0.005134934365)
(15.06284626 -0.07043950951 0.004905941347)
(15.06776122 -0.08374761033 0.004595841259)
(15.07487674 -0.09806644372 0.004199393101)
(15.08433946 -0.112660588 0.00381355123)
(15.09797864 -0.1262189982 0.003462341007)
(15.11422718 -0.137248781 0.003421955912)
(15.13207995 -0.1443110907 0.003982956689)
(15.15051569 -0.1461331244 0.005429135619)
(15.16572786 -0.1417408301 0.007820675316)
(15.17467773 -0.1331912649 0.01060063986)
(15.17390038 -0.1221034858 0.01312359768)
(15.16737117 -0.1109275349 0.01424308846)
(15.15456932 -0.09971887104 0.01199965361)
(15.14093603 -0.08930796952 0.005151644607)
(15.13084123 -0.07693100685 -0.00759195976)
(15.12602812 -0.0613519408 -0.02431879809)
(15.12596039 -0.03998779676 -0.04162916691)
(15.12301484 -0.01872523209 -0.06258128361)
(15.11483666 -0.01005992261 -0.0811875927)
(15.10334105 -0.009968399781 -0.1010486935)
(15.0968398 -0.01707452071 -0.114344263)
(15.09795756 -0.02661786935 -0.1192315451)
(15.10478553 -0.0397572694 -0.1210828578)
(15.11294606 -0.05316415592 -0.1213593338)
(15.12199604 -0.06627677913 -0.1201864222)
(15.13072918 -0.07558446305 -0.1190505479)
(15.14126314 -0.08572899679 -0.1154674069)
(15.13547329 -0.0911152864 -0.1110857029)
(15.18271815 -0.09543777277 -0.1126295428)
(15.06634203 -0.09588428739 -0.09447181767)
(15.25185982 -0.09592438711 -0.1620956301)
(15.01634154 -6.739222845e-05 0.006039087096)
(15.02176201 -8.432771758e-05 0.005928160662)
(15.02554849 -0.0002214511037 0.009891336063)
(15.03276174 -0.0003883107355 0.007094630401)
(15.03814099 -0.0007863886188 0.003831746163)
(15.03996975 -0.001180391316 0.001432701705)
(15.04250088 -0.002126729022 -0.0006279053396)
(15.0430795 -0.002838252419 0.0002483508954)
(15.04466194 -0.004221022049 0.002251035223)
(15.04653934 -0.005668712868 0.003541875334)
(15.04826664 -0.007749836997 0.004343040328)
(15.04953755 -0.01042632312 0.004723200016)
(15.05019997 -0.01377602128 0.004896913915)
(15.05034357 -0.01793185857 0.005013481134)
(15.05009706 -0.02306121975 0.005090866954)
(15.04956668 -0.02935581452 0.005127493306)
(15.04895516 -0.03702694764 0.005059271495)
(15.04838359 -0.04628327804 0.004888875629)
(15.04872339 -0.05744052389 0.004499865184)
(15.05014769 -0.07065425714 0.00395617419)
(15.05338825 -0.0858064792 0.003180675985)
(15.05968393 -0.1024439033 0.002203326169)
(15.06954286 -0.1199664332 0.0009770862688)
(15.08442863 -0.1369506735 -0.000243447415)
(15.10516444 -0.1509248237 -0.00139960331)
(15.12847157 -0.1591149114 -0.001526804485)
(15.15184981 -0.1589757876 -0.0001780985086)
(15.17215788 -0.1498158963 0.002853221067)
(15.184012 -0.1324768561 0.007220686095)
(15.18477417 -0.1149814796 0.01067575251)
(15.17777569 -0.09850701927 0.01237481307)
(15.16857917 -0.08831852867 0.01098284131)
(15.1628643 -0.08263771008 0.004094520951)
(15.16500664 -0.08010566387 -0.004856366938)
(15.17244942 -0.07730012701 -0.01271137836)
(15.17060523 -0.06028994074 -0.01475182026)
(15.14726758 -0.03092733277 -0.02824907628)
(15.11416446 -0.001826861643 -0.04996142266)
(15.09025702 0.01593880137 -0.07612375618)
(15.07866677 0.01693842772 -0.09167551367)
(15.07813513 0.01041641581 -0.09742919444)
(15.08322256 -0.001228801564 -0.1002071375)
(15.09243391 -0.01432164015 -0.1010684201)
(15.1045062 -0.02805447021 -0.09995632498)
(15.11566141 -0.03885360488 -0.09762536921)
(15.13321681 -0.05170267169 -0.09190042102)
(15.1295118 -0.05892303456 -0.08600014258)
(15.17903938 -0.06389808495 -0.08624700463)
(15.06400802 -0.0651396115 -0.06905105188)
(15.24544915 -0.0656914007 -0.1379521808)
(15.01634366 -0.0001509708386 0.006044287501)
(15.02166376 -0.0002407036514 0.005927192613)
(15.02543115 -0.0005133068078 0.009904878375)
(15.03237229 -0.000773698789 0.007132527065)
(15.03769098 -0.001315188864 0.00380401425)
(15.03916799 -0.001783081535 0.001455776652)
(15.0415606 -0.002908483559 -0.0006723756266)
(15.04171986 -0.003609806261 0.0001982813153)
(15.04298072 -0.005096461623 0.002238375503)
(15.04443934 -0.006561947894 0.003498462668)
(15.04565653 -0.00863912006 0.0043068345)
(15.04632661 -0.01128134115 0.00467946383)
(15.04626531 -0.01457175573 0.004847879363)
(15.04552453 -0.01865384664 0.004942934086)
(15.04419748 -0.0237096147 0.004988946706)
(15.04237526 -0.02997518729 0.004942493544)
(15.04017939 -0.03768198425 0.004768251096)
(15.03788202 -0.04718208982 0.004357146588)
(15.0363922 -0.05895876029 0.003679005555)
(15.03536903 -0.07318891001 0.002652353063)
(15.03663257 -0.08985432749 0.001215549027)
(15.04109962 -0.1088164387 -0.0008449833214)
(15.05164067 -0.129525551 -0.00350415993)
(15.0677957 -0.150655312 -0.006595285535)
(15.09269281 -0.1695890088 -0.009463511952)
(15.12608136 -0.1825988452 -0.01123202717)
(15.16173341 -0.1867537781 -0.01013695126)
(15.19424763 -0.1781986604 -0.004518031815)
(15.21079176 -0.1603259366 0.002963216587)
(15.20913395 -0.1394615439 0.008967079818)
(15.19386519 -0.1187208254 0.0119605398)
(15.16844383 -0.09837109224 0.0102667733)
(15.15211983 -0.08372671031 0.00436697267)
(15.13454494 -0.06531267305 -0.01234611961)
(15.158376 -0.06178319345 -0.01910710197)
(15.16835968 -0.002864703156 -0.02602652249)
(15.17925641 0.02927763536 -0.0275370506)
(15.15149803 0.0333502044 -0.04062549063)
(15.11578014 0.03657173472 -0.06573552302)
(15.09017779 0.03285218798 -0.09159301031)
(15.08006272 0.02081234996 -0.106778656)
(15.08103601 0.004306760952 -0.1161119534)
(15.08816757 -0.01155160725 -0.1218764227)
(15.09948861 -0.02674274728 -0.1250514848)
(15.11076196 -0.03723116888 -0.1268380749)
(15.12648368 -0.05043717012 -0.1239195112)
(15.12632773 -0.05516873226 -0.1211736684)
(15.17697033 -0.06130500419 -0.1204087332)
(15.06933209 -0.05856031396 -0.1030788724)
(15.25705346 -0.0583496408 -0.1696614471)
(15.01634324 -0.0001330281343 0.006040073016)
(15.02165468 -0.000205531766 0.005922528322)
(15.02533517 -0.000398915403 0.009907606596)
(15.0322904 -0.000597779525 0.007106649746)
(15.03740341 -0.0009895571288 0.00379420283)
(15.03883377 -0.001354004162 0.001397285822)
(15.0409573 -0.002225977878 -0.0007214309595)
(15.04090283 -0.00275058715 0.0001484620323)
(15.04189777 -0.00397412865 0.002225442692)
(15.04296378 -0.005143802813 0.003446141075)
(15.04372145 -0.006857595388 0.004243602267)
(15.0438289 -0.009079931347 0.00462186533)
(15.04306441 -0.01189981585 0.004790154747)
(15.04145011 -0.0154657118 0.004869859786)
(15.03901481 -0.01996615699 0.00487578487)
(15.03588286 -0.02566248057 0.00475864615)
(15.03186346 -0.03282416835 0.004431888879)
(15.02800483 -0.04186734592 0.00377650804)
(15.02385866 -0.05351751961 0.002685180649)