/*--------------------------------*- C++ -*----------------------------------*\
| =========                 |                                                 |
| \\      /  F ield         | OpenFOAM: The Open Source CFD Toolbox           |
|  \\    /   O peration     | Version:  2.2.1                                 |
|   \\  /    A nd           | Web:      www.OpenFOAM.org                      |
|    \\/     M anipulation  |                                                 |
\*---------------------------------------------------------------------------*/
FoamFile
{
    version     2.0;
    format      ascii;
    class       volScalarField;
    location    "7";
    object      epsilon;
}
// * * * * * * * * * * * * * * * * * * * * * * * * * * * * * * * * * * * * * //

dimensions      [0 2 -3 0 0 0 0];

internalField   nonuniform List<scalar> 
86889
(
0.1173506072
0.04959755193
0.0265884647
0.01742948555
0.01356869813
0.01219102979
0.01217718218
0.01297989314
0.01427911889
0.01586694702
0.01759889274
0.01937433802
0.02112318182
0.0227955931
0.02436331838
0.02581402715
0.02714398742
0.0283513129
0.02944429159
0.03043231206
0.03132810537
0.03214810426
0.03290551994
0.03361030743
0.03427841354
0.03492405407
0.03554871818
0.03616602804
0.03679606952
0.03748206015
0.03850313994
0.04029473945
0.04305639692
0.04587121052
0.04574873503
0.04458703475
0.04368527245
0.04302322048
0.04264562348
0.04273840403
0.04349746982
0.04454326817
0.04569105264
0.04682155827
0.04791302693
0.04892578167
0.05001237712
0.05057064147
0.05321244887
0.1309152178
0.1106576678
0.05025761541
0.02634592618
0.01615436355
0.01146882366
0.009332717637
0.008545888348
0.008557017087
0.00907336614
0.009914095448
0.01095573756
0.01210912298
0.01330867948
0.01450670019
0.01567029785
0.01677761081
0.01781548798
0.01877591637
0.01965919993
0.02046517083
0.02120099355
0.02187136555
0.02248489112
0.02305110662
0.02357763685
0.02407617474
0.02453874973
0.02499544211
0.02541836533
0.02583960965
0.02624909819
0.0266535872
0.02706188609
0.02737903148
0.0273287592
0.02636428242
0.02535049026
0.02450188039
0.02387962809
0.02377893254
0.02445500401
0.02531980365
0.02619412017
0.02697506088
0.02764942747
0.0281748325
0.02869435213
0.02854523739
0.0299224653
0.09303945262
0.109605832
0.05157716225
0.02582588972
0.01520390903
0.0100982149
0.007672925269
0.006779543244
0.006709868233
0.007103755802
0.007773630715
0.00860877277
0.009535696906
0.01050276036
0.01147317854
0.01242131677
0.01333048223
0.01419075695
0.01499683994
0.01574597233
0.01643815328
0.01707879865
0.01767337051
0.01822575429
0.0187415047
0.01922736169
0.01968944386
0.02013179964
0.02055767456
0.02097056531
0.02136629985
0.0217470902
0.0220939176
0.0224069531
0.022605084
0.02254278594
0.02181324053
0.02098915722
0.02030629592
0.01980165907
0.01951784113
0.01994765774
0.02057397955
0.02124989989
0.02189361379
0.02249268153
0.02297981394
0.02359868479
0.02368818447
0.02387164779
0.08576333532
0.1094092074
0.05122825119
0.02488416397
0.01446338216
0.009477936217
0.006946278373
0.005886180808
0.005694016488
0.005979279175
0.006541736582
0.00727330666
0.008107268981
0.008996016574
0.009902766192
0.01080232999
0.0116773187
0.01251505769
0.01330786017
0.01405324232
0.01475095592
0.0154020771
0.01600997214
0.01657747527
0.0171100662
0.01761302222
0.01809129738
0.01854986301
0.01898914624
0.01941343148
0.01981779837
0.02019520922
0.02053022564
0.02080179955
0.0209242398
0.02058971511
0.01991278166
0.01926144444
0.01874939055
0.01837910712
0.01834898136
0.01869810303
0.01914439844
0.01960442821
0.02002277689
0.02039550956
0.02066168862
0.02108875299
0.02116397789
0.02177932126
0.08482890999
0.10940454
0.0511404017
0.0247899061
0.01429765824
0.009258501845
0.006725951688
0.005556887632
0.005258298163
0.005433549386
0.005882213809
0.006498759344
0.007222282452
0.008008411183
0.00882457307
0.009645883188
0.0104541487
0.01123684651
0.01198603619
0.01269687324
0.01336715927
0.01399667072
0.01458809924
0.01514406154
0.01566816843
0.01616666545
0.01664310176
0.01710266118
0.01754045054
0.01796684818
0.01837011621
0.01873688911
0.01905835215
0.01931513718
0.0194519356
0.01933800498
0.01876108886
0.01827679721
0.01789971686
0.01762587398
0.01770164875
0.01795132284
0.01825780705
0.01857476774
0.01886203003
0.01913634238
0.0193384301
0.0197470849
0.01999612961
0.02066783019
0.0844936801
0.1094039668
0.05111853322
0.02477079617
0.01427256059
0.009164428583
0.006608727035
0.005409489341
0.005073604782
0.005208133143
0.005615226563
0.00619055807
0.006873583055
0.00762210884
0.008403733065
0.009194157227
0.009975834434
0.01073591106
0.01146583201
0.01216029034
0.01281676651
0.01343452472
0.01401500154
0.01456182744
0.01507802966
0.01556989596
0.01603978421
0.01649138994
0.01692847167
0.01734474161
0.01773584458
0.01809850437
0.01841756684
0.0186714634
0.01882753541
0.01883638016
0.01862189707
0.0181400732
0.01780663654
0.0177008141
0.017718668
0.01776303991
0.01783287928
0.01798013943
0.01810085775
0.01819561973
0.01825049781
0.0185660707
0.01894617589
0.01960827666
0.0836703034
0.1094033267
0.05111352401
0.02476630585
0.01426555315
0.009154765735
0.006573254177
0.005347081427
0.004992481337
0.005101968986
0.005481395596
0.006027768798
0.006681313189
0.007400320292
0.008152787713
0.008914839077
0.009669227947
0.01040327716
0.01110844576
0.01177956186
0.01241394824
0.01301092868
0.0135713067
0.01409834626
0.01459630614
0.01507005991
0.0155232858
0.01596246875
0.01638959403
0.01680290097
0.01719542615
0.01756305685
0.01789186142
0.01815061024
0.01830986498
0.01836012759
0.0182821431
0.01809532822
0.01790946783
0.01775590412
0.01762927874
0.01748163448
0.01735463572
0.01736069381
0.01738182536
0.01741044446
0.01744009782
0.01775183372
0.01827810996
0.01890999159
0.08302131406
0.1094026819
0.05111241487
0.02476553262
0.01426423396
0.009152814072
0.006570731982
0.00532232153
0.00495051507
0.005047909533
0.005414592979
0.005947708503
0.006588069905
0.007294157234
0.008034216289
0.008784378507
0.009527286768
0.01025041497
0.01094477037
0.01160519071
0.01222863479
0.01281449132
0.0133635484
0.01387957561
0.01436496345
0.01482617289
0.01526881748
0.01570009196
0.01612519458
0.01655625818
0.01697085479
0.01736191009
0.01770708018
0.01797070258
0.01812719185
0.01817862944
0.01813312008
0.01802868913
0.01788498231
0.0176961098
0.01749230575
0.01725687945
0.01705003101
0.01695435412
0.01692189163
0.01692852624
0.0170137661
0.01737144656
0.01800282542
0.01864224246
0.08268622709
0.1094020169
0.0511116761
0.02476484301
0.01426342088
0.009151854626
0.006569647476
0.005320240015
0.004935861183
0.005019428246
0.005376330697
0.005898380817
0.006527100166
0.007220964067
0.007948627377
0.00868620884
0.00941637357
0.01012670954
0.01080786791
0.01145466591
0.01206362891
0.01263383244
0.0131662851
0.01366597058
0.01413604947
0.01458362165
0.01501212964
0.01543219455
0.01585941116
0.01629426625
0.01671887725
0.01712246597
0.01747888419
0.01774473579
0.01790348638
0.01796150855
0.01790667693
0.01777590807
0.01758786836
0.01733464202
0.0170608744
0.01678075926
0.01651977749
0.01641684218
0.01641171913
0.01649589125
0.01671509198
0.01709700869
0.01779385191
0.01819798108
0.0820421058
0.1094013539
0.05111119722
0.02476455998
0.01426322706
0.009151691509
0.006569467764
0.005318816745
0.004933282753
0.005004160743
0.005356838617
0.005874262706
0.006498821648
0.007188465155
0.007912085983
0.008645565126
0.009371444691
0.01007705986
0.01075269945
0.01139264379
0.01199364206
0.01255575882
0.01308000924
0.01357161656
0.01403366556
0.0144705357
0.0148888946
0.01530319681
0.01572498994
0.01615809984
0.0165900646
0.01699972523
0.01735283809
0.01761521922
0.01775181499
0.01777325544
0.01772477347
0.01764480621
0.0174892834
0.01719263802
0.0169237737
0.016656878
0.01646093793
0.01638541775
0.01636795294
0.01646268387
0.01668286867
0.01706516071
0.0177624455
0.01818295248
0.08196626985
0.1094006919
0.05111065021
0.0247641114
0.01426283007
0.009151308969
0.006569091411
0.005318141769
0.00493240624
0.005003386243
0.005355835881
0.00587243512
0.006495932894
0.007184084619
0.007905787824
0.008636790601
0.009359392209
0.01006057271
0.01073045898
0.01136327125
0.01195652777
0.01251047935
0.01302351875
0.01349701542
0.01393528358
0.01434409984
0.0147316114
0.01512142521
0.01552847175
0.01596639433
0.01641360924
0.01684859402
0.01722511406
0.01751253127
0.01766149664
0.01765391043
0.01753639124
0.01733868726
0.01713360289
0.01685409767
0.01662336892
0.01643642903
0.01632920073
0.01627599762
0.01627514156
0.01638393292
0.01660700186
0.01699147928
0.01768762786
0.01775210264
0.08127216566
0.1094001037
0.0511102185
0.02476383336
0.01426262281
0.009151126233
0.006568912184
0.005317281139
0.004931016942
0.005001829419
0.005354092228
0.005870375484
0.006493468531
0.007181635474
0.007903155612
0.008633291889
0.009354727331
0.01005246529
0.01071853583
0.01134621551
0.0119343793
0.0124763468
0.01297216384
0.01341235727
0.01380806677
0.01416196724
0.01450182022
0.01484497579
0.01523345749
0.01568231567
0.01615214547
0.01660502805
0.0169909592
0.01726517652
0.01745393157
0.01759360631
0.01784792404
0.01798425873
0.0178954929
0.01780705202
0.01759505741
0.01736915882
0.01714416124
0.01696596919
0.0168541033
0.01685928652
0.01699813127
0.01731913992
0.01797246475
0.01845201869
0.08227873199
0.1093995442
0.05110981468
0.02476353678
0.0142623746
0.009150893067
0.006568683132
0.005316817018
0.004930299558
0.005001299446
0.005353366681
0.005869559783
0.006491884029
0.007179228536
0.007899283429
0.008627680398
0.009345451232
0.01003935093
0.01069974098
0.01132203279
0.01189636938
0.01241722047
0.01287265244
0.0132602834
0.01356492677
0.0138115465
0.01401891955
0.01426254941
0.01461622272
0.01512804438
0.01572295554
0.01631937762
0.01682467239
0.01720320661
0.01727838978
0.0172391337
0.01631860082
0.01571821337
0.01547532047
0.01530267421
0.01519797581
0.01515872639
0.01515433396
0.01518723062
0.01526271806
0.0154547332
0.01575241718
0.01620885501
0.01696252395
0.01688210258
0.08027405679
0.1093990742
0.05110944147
0.02476327859
0.01426217642
0.009150726913
0.006568520701
0.005316315562
0.004929592711
0.005000662303
0.005352501981
0.005868225773
0.006490241142
0.007177184233
0.007896499137
0.008623441549
0.009338819473
0.01002857382
0.010686095
0.01129997145
0.01185988981
0.01234857982
0.01275086957
0.01304384705
0.01320845291
0.01324072913
0.01324690941
0.01332419025
0.01351332147
0.01398393889
0.01459314581
0.01528227434
0.01584168983
0.01628979522
0.01649275154
0.01693674008
0.0181488622
0.01813223132
0.01702018545
0.0164848712
0.01631438508
0.01610105486
0.0158723705
0.01567867669
0.01564085128
0.01574049097
0.01596481906
0.01636063179
0.01706486877
0.01704139615
0.0804434665
0.1093986762
0.05110911465
0.02476303281
0.01426197633
0.009150553256
0.006568353146
0.005315997202
0.004929253803
0.005000567129
0.005352288926
0.005867753111
0.006489306738
0.00717556557
0.007893836574
0.008619039085
0.009330816098
0.01001579931
0.01066432292
0.01126689603
0.01180733135
0.01225594593
0.01258082588
0.0127313728
0.01271804724
0.01277790776
0.01290124458
0.0130795847
0.01320423429
0.01388666364
0.01468677686
0.01565547789
0.01650493943
0.01700474336
0.01722537692
0.01723028515
0.01917319831
0.02192771182
0.02413924629
0.02471736598
0.0248943895
0.0245287789
0.0238894574
0.02314254775
0.02235210453
0.02169464802
0.02111598194
0.02085561653
0.02079128523
0.02132341782
0.08480958049
0.1093983896
0.05110888687
0.02476287164
0.01426185336
0.009150457117
0.006568257652
0.005315744535
0.004929026401
0.005000448205
0.005352267751
0.005867465657
0.006488683242
0.007174504864
0.007892048717
0.008615915364
0.00932514512
0.01000530349
0.01064489033
0.01123246817
0.01174927939
0.0121513109
0.01238281152
0.01237152976
0.01243273909
0.01256853925
0.0127927415
0.01314863347
0.01273821959
0.0131323731
0.012636608
0.01324354909
0.01428884867
0.01524641733
0.01551192453
0.01601601726
0.01735520769
0.01788057095
0.01777533314
0.01868897203
0.0192503617
0.01932099422
0.01894990009
0.01833656103
0.01763731501
0.01739130961
0.01734204316
0.01752412152
0.01807249502
0.01859619205
0.08254929921
0.1093982068
0.05110873806
0.02476276055
0.0142617647
0.009150382327
0.006568186623
0.005315611977
0.004928995119
0.005000501621
0.005352883411
0.005868037855
0.006488973504
0.007174373564
0.007891237438
0.008613990348
0.009321064463
0.009997884769
0.01063044387
0.01120369056
0.0117029079
0.01206307858
0.01222043636
0.01220390837
0.01231076922
0.01257392071
0.01299551487
0.01348876033
0.01371768284
0.01422681371
0.01377527814
0.01481572912
0.01727945925
0.01981817462
0.02018115758
0.01985831251
0.01914865398
0.01818854059
0.01827118886
0.0194944846
0.02061796371
0.0212121914
0.02124282149
0.02062085708
0.0196676905
0.01914797564
0.01879549809
0.0187309701
0.01908594627
0.01919322676
0.08286081822
0.1093981459
0.05110869615
0.02476273265
0.01426174399
0.009150366244
0.006568171525
0.005315568673
0.004928968903
0.005000435984
0.005353100542
0.005868276146
0.006489101553
0.007174343974
0.007890961504
0.008613429784
0.009319483456
0.009995516829
0.01062245591
0.01119257478
0.01167148574
0.01200710995
0.01208116732
0.01205717454
0.01218851139
0.01253682326
0.01288382383
0.01325185776
0.0138141013
0.01344578899
0.01732154701
0.02186087311
0.02918297819
0.03611288511
0.0349044921
0.03311603505
0.03164455144
0.02874342904
0.02663450348
0.02562716222
0.02619275314
0.02691740696
0.02691667448
0.02636639761
0.02559703141
0.02519476775
0.02487010458
0.02480342359
0.02458016581
0.02503813699
0.08809247325
0.1093982011
0.05110875475
0.02476277438
0.01426177405
0.009150390415
0.006568194089
0.005315615057
0.004928941223
0.005000456589
0.005352629093
0.005867773261
0.006488743048
0.00717416863
0.007891057745
0.008613831066
0.009320934857
0.009997706718
0.01063034527
0.01120357734
0.01170283347
0.01206285157
0.01222011524
0.01220514614
0.01231161637
0.01257485615
0.01299675924
0.01348982281
0.01371790707
0.01493350113
0.01737911377
0.02633819047
0.04362757668
0.06253449728
0.05356688728
0.04695933774
0.04738212736
0.0394085445
0.03477044666
0.03139601043
0.02873303134
0.02721628512
0.0261586383
0.02489828987
0.02358108606
0.0227743705
0.02205959526
0.02168053331
0.02165545687
0.02160786669
0.08452779164
0.1093983775
0.05110890126
0.02476288601
0.01426186311
0.009150465837
0.006568267558
0.005315764615
0.004929001632
0.005000416138
0.005352153168
0.005867393548
0.006488658584
0.007174516566
0.007892093139
0.008615982951
0.009325249301
0.01000539292
0.01064516172
0.01123278767
0.0117495427
0.0121516026
0.01238292023
0.01237200257
0.01243266104
0.0125673102
0.01279098941
0.01314880976
0.01274447001
0.01374145285
0.01930383111
0.03631921647
0.07116388406
0.1782970038
0.1382944965
0.1102195431
0.09801442046
0.07652753387
0.06014458429
0.04967906557
0.04270240548
0.03698004893
0.03274479243
0.02948342862
0.02691923542
0.02511015304
0.02378828319
0.02289594476
0.02254019117
0.02189332141
0.08423054192
0.1093986644
0.05110912803
0.02476304852
0.01426199454
0.00915057454
0.006568374093
0.005316021909
0.004929245358
0.005000507894
0.005352247545
0.005867760361
0.006489344188
0.007175623078
0.007893911799
0.008619130279
0.009330932772
0.0100159331
0.01066460298
0.01126707764
0.01180754717
0.01225628243
0.01258078664
0.01273115751
0.012717207
0.01277454917
0.01289674774
0.01307828453
0.01353659402
0.01570749348
0.02366636536
0.04409239824
0.09083148625
0.29913981
0.0295256563
0.02929556067
0.04022391137
0.03921048562
0.0368269185
0.03504219857
0.03398777064
0.03305795628
0.03258843218
0.03242552923
0.03235137635
0.03239548555
0.03253951907
0.03281995264
0.03344740253
0.03370693312
0.1048834553
0.1093990523
0.05110945061
0.02476329176
0.01426219275
0.009150742756
0.00656854014
0.005316359436
0.004929636076
0.005000676692
0.005352586445
0.005868364565
0.006490412216
0.007177382148
0.007896719294
0.008623694118
0.009339083393
0.01002885895
0.01068641306
0.01130052501
0.01186017203
0.01234944914
0.01275132052
0.01304470008
0.01321035454
0.01324694573
0.01325582592
0.01333314343
0.0137136717
0.01556701778
0.02176699648
0.03859504247
0.0725825375
0.1790460281
0.1395822268
0.1107947837
0.09261813366
0.07330143803
0.05777275355
0.04751281199
0.04107805892
0.03653600289
0.03335084866
0.03093820259
0.02906910572
0.02764763436
0.02661230012
0.02603855678
0.0254793765
0.02542045107
0.0900311532
0.109399522
0.05110980841
0.02476353612
0.01426237966
0.009150903926
0.006568699182
0.005316846876
0.004930369936
0.005001328462
0.005353430787
0.005869658502
0.006492001496
0.007179356648
0.007899426296
0.008627847494
0.009345639692
0.01003956787
0.01069994697
0.01132246814
0.01189681806
0.01241823735
0.0128735034
0.01326357015
0.01357721482
0.01383053138
0.01402801007
0.01428742635
0.01470887314
0.01596984114
0.01939844823
0.02854732611
0.04537016372
0.06332871061
0.05455957759
0.04709266198
0.04160355426
0.03580529082
0.03136193877
0.02807231856
0.02585745703
0.02417153225
0.02285817291
0.02184332829
0.02106948815
0.02054267256
0.02024451021
0.02018736794
0.02051356747
0.02045985174
0.08392298487
0.1094000666
0.05111019467
0.02476381957
0.01426261576
0.009151131316
0.006568926602
0.005317350503
0.00493115504
0.005001954929
0.005354270101
0.00587059068
0.006493708948
0.007181900019
0.007903448042
0.008633626917
0.009355081062
0.01005289396
0.01071889264
0.01134683363
0.01193522154
0.01247772533
0.01297431181
0.01342082446
0.01382786968
0.01418940067
0.01452903467
0.0148747825
0.01526768354
0.01593686399
0.01741634298
0.02111966755
0.02770937697
0.03360292689
0.03044917121
0.02773214602
0.0255803923
0.02346383721
0.02168379648
0.02050853743
0.0196113325
0.01892630259
0.01839350278
0.01799842277
0.01772527288
0.01764000566
0.01770119311
0.01794470923
0.01851225628
0.0183961701
0.08172897565
0.1094006556
0.0511106324
0.02476410579
0.01426283365
0.009151321326
0.006569110736
0.005318185002
0.004932483076
0.005003436267
0.005355934746
0.005872541405
0.00649602869
0.0071842014
0.007905929754
0.008636948015
0.009359584526
0.01006076758
0.01073068307
0.0113634737
0.01195692273
0.01251093283
0.01302492843
0.0135012934
0.01394421086
0.01435479489
0.01474184842
0.01512911554
0.01553527119
0.01600485016
0.01670920123
0.01803455987
0.02026489928
0.02226772353
0.02161007599
0.02050106615
0.01959985698
0.01880419103
0.01817934538
0.01771674532
0.01736285555
0.0170787037
0.01689833032
0.01679178837
0.01675416263
0.01683007883
0.01702766776
0.01738961299
0.01806409569
0.018350839
0.08211044399
0.109401306
0.05111115039
0.02476452626
0.01426321273
0.009151686088
0.00656947402
0.005318902633
0.004933442024
0.005004311428
0.005357054873
0.005874514958
0.006499136655
0.007188849413
0.00791257092
0.008646146827
0.009372131361
0.01007786421
0.01075363208
0.01139371733
0.01199491569
0.0125572012
0.0130815577
0.01357311398
0.01403563939
0.01447194107
0.01488948189
0.01530230964
0.01572503994
0.01616210538
0.01664059698
0.01721907567
0.01798680651
0.01866293058
0.0186396078
0.01805440399
0.01754917109
0.0171474245
0.01683954888
0.01659738161
0.01642241804
0.01623455338
0.01610603433
0.01608984131
0.0161272559
0.01627324044
0.01653920251
0.01696149536
0.01768734566
0.01811869382
0.08192606332
0.1094019668
0.05111162205
0.02476481348
0.01426341685
0.00915187252
0.00656967944
0.005320371306
0.004935998482
0.005019534743
0.005376503238
0.005898544306
0.006527217338
0.00722103549
0.007948660032
0.008686226492
0.009416385596
0.01012674541
0.01080794035
0.01145480408
0.01206387421
0.01263420039
0.01316674086
0.01366658082
0.01413689294
0.01458448379
0.01501253164
0.01543222371
0.015859373
0.01629425199
0.01672220808
0.01714749278
0.01757355196
0.01792569614
0.01807429519
0.01804062681
0.01793370063
0.01779319621
0.01761226314
0.01737122601
0.01711243514
0.01684074989
0.01660255768
0.01652048691
0.01650969653
0.01658222724
0.01677270169
0.01715373566
0.01784359549
0.0183857712
0.08233644665
0.1094026215
0.0511123212
0.02476546058
0.01426418448
0.0091527862
0.006570718193
0.005322164753
0.00495033947
0.005047809035
0.005414607091
0.005947796699
0.006588259913
0.007294474885
0.008034687687
0.008785027125
0.009528125114
0.01025149718
0.01094607539
0.0116067169
0.01223031906
0.01281624987
0.01336521824
0.01388075744
0.01436580911
0.01482625607
0.01526795195
0.01569844244
0.01612259462
0.01655358086
0.0169689469
0.01736292979
0.0177167923
0.01798922455
0.01814100672
0.01817780723
0.01811485143
0.01799167717
0.01784031487
0.01765159175
0.01745328411
0.01722803237
0.01703678792
0.01696209447
0.01695046895
0.01698289519
0.01706394868
0.01743110692
0.01804116198
0.0187108893
0.0827733784
0.109403265
0.05111346038
0.02476627003
0.01426554383
0.009154774315
0.00657326478
0.005347232691
0.004992846982
0.005102474886
0.005482332558
0.006028711955
0.006682076021
0.007400924135
0.008153278598
0.008915253171
0.009669562161
0.01040358767
0.01110865202
0.01177960202
0.01241367088
0.01301029146
0.013570632
0.01409777491
0.01459548267
0.01506857478
0.01552297863
0.01596152501
0.01638818796
0.01680209973
0.01719302584
0.0175617932
0.01789240745
0.01815421593
0.01831787934
0.01837364909
0.01830908812
0.01813549103
0.01795885899
0.01781188295
0.01768981978
0.01754596679
0.01742338187
0.01741398756
0.01744773425
0.01749779534
0.0175450319
0.01787082279
0.01836715708
0.01904750833
0.08318514716
0.1094038958
0.05111837578
0.02477065831
0.0142724522
0.009164323189
0.006608653252
0.005409277698
0.005073277098
0.005207644965
0.005614279699
0.006189714265
0.006872769542
0.007621523004
0.008403480528
0.009194243518
0.009976246915
0.01073655721
0.01146656927
0.01216111462
0.01281765981
0.01343576898
0.01401654125
0.01456401052
0.01508089805
0.01557210037
0.01604277325
0.01649546111
0.01693372531
0.01734911621
0.01774299731
0.01810546486
0.01842565656
0.01868098752
0.01883967028
0.01885244281
0.01863917143
0.01815676696
0.01782202229
0.01771625103
0.01773564569
0.01778593489
0.01786404617
0.018006187
0.01813618136
0.01824730337
0.01831696884
0.01864770473
0.01901410398
0.01969909323
0.08375871699
0.1094044814
0.05114048856
0.02479000434
0.01429771277
0.009258557271
0.006726041171
0.005557631179
0.005259519848
0.005435013925
0.005883849769
0.006500468973
0.007224393873
0.008010725304
0.00882763881
0.009649102767
0.01045730976
0.01123999306
0.01198915214
0.0127000591
0.01337066824
0.01400053314
0.01459233246
0.01514892828
0.01567366171
0.01617510865
0.01664867881
0.01711107118
0.01754844432
0.01797054982
0.01837526366
0.01874445204
0.019068607
0.01933055284
0.01947426449
0.01936271315
0.01878345581
0.01829835717
0.0179211365
0.01764644586
0.01773041665
0.01798942916
0.01830572586
0.01863278688
0.01893114851
0.0192181192
0.01943110224
0.01984662691
0.02008329984
0.02078307002
0.08460689844
0.1094173846
0.05123181055
0.02488721577
0.01446519975
0.009479061562
0.0069470094
0.005886138436
0.005693513504
0.005978600701
0.006541048214
0.007272691895
0.008106834814
0.008995845967
0.009902207309
0.01080218349
0.01167739713
0.01251518532
0.01330825901
0.01405440997
0.01475262201
0.01540389225
0.01601194442
0.01657973509
0.01711213433
0.01761729275
0.01809549388
0.01855564168
0.01899659311
0.01941708345
0.01981954833
0.02019246751
0.02052649961
0.02080213112
0.02092954668
0.02060073906
0.01992450127
0.01927392759
0.0187626384
0.01839255809
0.01836532179
0.01871837015
0.0191688442
0.01963426433
0.02006006349
0.02044236936
0.02072233754
0.02115207891
0.02122636336
0.0218569333
0.08488854526
0.1096137306
0.05158137582
0.02583022348
0.01520670271
0.01010020437
0.007676380875
0.006783676371
0.006714320531
0.007108759394
0.007779216432
0.008614914548
0.009542438121
0.01051012107
0.0114811395
0.01242962415
0.01333973768
0.01420114
0.01500830751
0.01575759744
0.01645044578
0.01709050748
0.0176851887
0.0182367917
0.01875337753
0.01923942748
0.01970249879
0.02014603586
0.02057383785
0.02098781142
0.0213859065
0.0217662479
0.02211422131
0.02242979172
0.02263022169
0.02257627221
0.02184349917
0.02101649052
0.02033168315
0.01982569614
0.01955208602
0.01999046341
0.02062539866
0.02130947822
0.02196085671
0.02257020682
0.02305623498
0.02369128018
0.02380476411
0.02401881905
0.08588476331
0.1106576636
0.05025754574
0.02634534287
0.01614964377
0.01146246564
0.009326870544
0.008540389278
0.008551477127
0.009067738636
0.009908399048
0.01094988785
0.01210303511
0.01330236593
0.01450010748
0.01566333832
0.01677055068
0.0178080964
0.0187691128
0.01965191038
0.02045879654
0.02119350305
0.02186390906
0.02247705882
0.02304415484
0.02356958945
0.02407099239
0.02453765958
0.02499388864
0.02542557744
0.02584112298
0.02625011542
0.02665238435
0.02707283158
0.02738898909
0.02734396179
0.02637905362
0.02536455679
0.02451599989
0.02389402231
0.02379580992
0.02447794597
0.02534976421
0.02623272505
0.02702273383
0.02770796788
0.02824744674
0.02878811165
0.02864471327
0.03002427437
0.09310900827
0.1173505323
0.04959738537
0.0265884298
0.01743027167
0.01357116765
0.01219484237
0.01218124465
0.01298360092
0.014282279
0.01586945341
0.01760060603
0.01937522393
0.02112309349
0.02279476466
0.0243618493
0.02581229531
0.02714134481
0.02834772918
0.02943867655
0.03042699322
0.03132461345
0.0321454999
0.03290341232
0.03360764833
0.03427047805
0.03490679423
0.03553146551
0.03613819592
0.03676796144
0.03746256909
0.03848583519
0.04027359026
0.04304695463
0.04585995261
0.04575112858
0.04459289058
0.0436938354
0.04303408894
0.04265863111
0.04276457765
0.04353515239
0.04459113468
0.04574842099
0.04688763589
0.04798766946
0.04900754268
0.05009620031
0.05066234692
0.05333502961
0.1310165839
0.1103609052
0.04587605594
0.02162298818
0.01249994556
0.008517564665
0.00674817936
0.006075697192
0.006030604624
0.006384134717
0.007004573347
0.007804328833
0.008718582343
0.009696981463
0.01070009574
0.01169746973
0.01266606234
0.01358950848
0.01445654332
0.01526119223
0.01599967299
0.01667302005
0.01728265119
0.01783334961
0.01832825547
0.01877192668
0.01916861869
0.0195342955
0.01985482957
0.02024670923
0.02095042611
0.0226326999
0.02612630205
0.03192679887
0.03839255715
0.03721238881
0.0341504
0.03147829869
0.02915560304
0.02729052051
0.02577825854
0.02459151489
0.02368465054
0.0230032895
0.02250266288
0.02214991619
0.02192453087
0.02181855078
0.02205225333
0.02268676294
0.0855389864
0.1003267337
0.04236354638
0.02071876587
0.01103674455
0.006477175193
0.004105570464
0.002768008803
0.001963448713
0.00145405791
0.001118174828
0.0008895411748
0.0007300798357
0.0006168555098
0.00053547634
0.0004765895796
0.000433936775
0.0004031628436
0.0003812112317
0.0003658999914
0.0003555918525
0.0003493315662
0.0003463224084
0.0003462672381
0.0003490216769
0.000354413063
0.0003628103872
0.0003735762812
0.0003876136226
0.0004044156886
0.0004283692025
0.0004674804814
0.000540583647
0.0006689069781
0.0008254840271
0.0007940151754
0.0007501356651
0.0007128993689
0.0006855019534
0.0006824054085
0.0006998175393
0.0007390789374
0.0007991800496
0.0008783692514
0.0009741356453
0.001084772926
0.001211604016
0.001346500068
0.002927301383
0.002930961483
0.009364187403
0.09870644649
0.04169511627
0.02048568571
0.01095699563
0.006447508096
0.004090514222
0.002755404366
0.001948522598
0.001434573503
0.001092893031
0.0008576799036
0.0006911170121
0.0005704733409
0.0004815628941
0.0004152144815
0.0003653397005
0.0003277465026
0.0002996099453
0.0002788695337
0.000264151818
0.0002544129498
0.00024891999
0.0002472107618
0.0002489396113
0.0002539098885
0.0002620246442
0.0002733058488
0.0002874596758
0.0003043908514
0.0003235246934
0.0003440705218
0.0003642778049
0.0003821844947
0.0003947531209
0.000399725028
0.0003858941116
0.0003590804544
0.0003536704033
0.0003819900092
0.000430560615
0.0004953603318
0.0005761582981
0.0006731890088
0.0007858525511
0.0009139803495
0.00106021968
0.001222473051
0.002853243647
0.002854987198
0.006193412502
0.09880069431
0.04216212878
0.02081451377
0.01101700137
0.006481763391
0.004107601489
0.002763852775
0.001952422955
0.001435992626
0.001092941002
0.0008569699766
0.0006900139003
0.0005692036639
0.0004802359778
0.000413884093
0.0003640238145
0.0003264808536
0.0002983352568
0.0002775430036
0.0002626604875
0.0002526813372
0.0002468601612
0.0002447124563
0.0002459432544
0.0002504011032
0.0002579749756
0.0002686775474
0.0002823180138
0.0002986375533
0.0003171300647
0.0003362693696
0.000354048436
0.0003676611561
0.000373635255
0.0003670347986
0.0003390497402
0.0003179583595
0.0003041460876
0.0003076916711
0.0003351336406
0.0003794222143
0.0004386675311
0.0005121769337
0.0005996757721
0.0007016168403
0.0008212804108
0.001224125874
0.003992703456
0.003897587309
0.007041168457
0.09920875799
0.04287529998
0.02082348518
0.01093814873
0.006447555092
0.004087369571
0.002750110971
0.001942267039
0.001427754241
0.001085595666
0.0008498400845
0.0006826285137
0.0005612159816
0.0004714021318
0.0004040118871
0.0003529520029
0.0003140803599
0.0002845146126
0.0002622276105
0.0002457818216
0.0002341540187
0.0002266423327
0.0002227559353
0.000222191825
0.0002248416148
0.0002305387521
0.0002393823412
0.0002510091461
0.0002651979076
0.0002808934048
0.0002972239542
0.000311874749
0.0003218631154
0.0003242081691
0.0003163227458
0.000295114855
0.0002786306248
0.0002688606144
0.0002695220704
0.0002860941941
0.0003175045776
0.0003638691719
0.0004254183821
0.0005020297803
0.0005963296847
0.0009923951353
0.001562581435
0.004141018392
0.004005550891
0.007081599097
0.09920928015
0.04287344147
0.02082688578
0.01093254475
0.006446697122
0.004078267644
0.0027440708
0.001937929965
0.001424408804
0.001082853761
0.0008474919096
0.0006805453976
0.0005593239778
0.000469648754
0.0004023581863
0.0003513672004
0.0003125324931
0.0002829681497
0.0002606292047
0.0002440637758
0.000232238593
0.0002244414434
0.0002202021101
0.0002192494289
0.0002214648614
0.0002266552731
0.000235016791
0.0002461431329
0.0002330831791
0.0002519914611
0.0003312359511
0.0003788083523
0.0003801315705
0.0003717641178
0.0003575172188
0.0003324349476
0.0003124853354
0.0002997401336
0.0002951113122
0.000299523246
0.0003130093008
0.0003387008159
0.0003878958437
0.0004813594457
0.0006828062752