/*--------------------------------*- C++ -*----------------------------------*\
| =========                 |                                                 |
| \\      /  F ield         | OpenFOAM: The Open Source CFD Toolbox           |
|  \\    /   O peration     | Version:  2.2.1                                 |
|   \\  /    A nd           | Web:      www.OpenFOAM.org                      |
|    \\/     M anipulation  |                                                 |
\*---------------------------------------------------------------------------*/
FoamFile
{
    version     2.0;
    format      ascii;
    class       volScalarField;
    location    "7";
    object      k;
}
// * * * * * * * * * * * * * * * * * * * * * * * * * * * * * * * * * * * * * //

dimensions      [0 2 -2 0 0 0 0];

internalField   nonuniform List<scalar> 
86889
(
0.01361570513
0.00893352487
0.00738552063
0.007156876748
0.007789856848
0.009072410034
0.01083913522
0.01294665325
0.01526990139
0.01770892937
0.02018782887
0.02265103037
0.02505802737
0.02737881478
0.02959658992
0.03170442493
0.03370067784
0.03558474379
0.03736307315
0.03904341249
0.04063591147
0.04215377182
0.04360796047
0.04500772726
0.04636694179
0.04769883446
0.04900836534
0.0503076063
0.05161447079
0.05296344506
0.05455102527
0.05669396282
0.05953399928
0.06244712603
0.06338154702
0.06361496724
0.06403858951
0.0646715498
0.06555812935
0.06683215929
0.06864178187
0.07072084166
0.07293773968
0.07520658092
0.07751279988
0.07983515081
0.08227749913
0.08454675329
0.08810269442
0.1366676706
0.01309531111
0.009722212601
0.007202887805
0.006115912489
0.005909509237
0.006321635115
0.007190124421
0.008395321434
0.009841326885
0.01144884933
0.0131534868
0.01490386033
0.01665979318
0.01839079041
0.02007518913
0.02169807804
0.02325011782
0.02472525493
0.02612353499
0.02744462025
0.0286936224
0.02987402995
0.0309927802
0.03205789891
0.03307627627
0.03405811065
0.03499869306
0.0359220192
0.03680874852
0.03768439548
0.03854319988
0.03939227327
0.04023908927
0.04101267349
0.04149632743
0.04127937413
0.04104704511
0.04101546368
0.04118567097
0.04181304488
0.04313992372
0.04466057896
0.04622190519
0.04773784449
0.04920284578
0.05059247147
0.0520448759
0.05300250194
0.05478307953
0.1020382728
0.01300593603
0.0105015333
0.00700278707
0.005417911699
0.004707849681
0.00469189034
0.005304842068
0.006296297854
0.007510122822
0.008857427375
0.01028117065
0.01174021334
0.01320374906
0.01464875766
0.01605859065
0.01742209391
0.01873246845
0.01998596674
0.02118052733
0.02231605785
0.02339682672
0.02442731726
0.02541084249
0.02635214759
0.027257122
0.02813144057
0.02897925626
0.02980420077
0.03061008875
0.0313949551
0.03216143341
0.03289605219
0.03359864057
0.03420799356
0.03460712731
0.03448579844
0.03429573873
0.03429468426
0.03445276625
0.0347991532
0.03579084473
0.03698278798
0.03825350831
0.03953868339
0.04083715431
0.04210246332
0.04356652165
0.04468118391
0.04458115586
0.09168432206
0.01298775839
0.01028593944
0.006645147822
0.005058409043
0.004322683248
0.004104097747
0.004497627314
0.005351031726
0.006466267265
0.007733792849
0.009092662267
0.01050326814
0.01193513324
0.01336297286
0.01476906011
0.01614079325
0.01746851591
0.01874616848
0.01997172082
0.02114487072
0.02226640028
0.02333906521
0.02436530874
0.02534986189
0.02629753578
0.02721306336
0.02810139627
0.02896380696
0.02980474454
0.0306210235
0.0314074254
0.03215138633
0.03283506337
0.03338638794
0.03354675362
0.03340274749
0.03322036412
0.03319413606
0.03331197618
0.03373051707
0.03449807841
0.03537890707
0.03630843586
0.03724677549
0.0382025191
0.03913760835
0.04030768648
0.04131395803
0.0417618803
0.08963714778
0.01298741319
0.01023148144
0.006596728686
0.00497584665
0.004189545379
0.003937555863
0.004196069114
0.004935369907
0.005944058418
0.007108623029
0.008368096083
0.009686646205
0.01103530952
0.01239154577
0.01373721131
0.01505856064
0.01634585314
0.01759273973
0.01879518261
0.01995122137
0.02106052996
0.02212533493
0.02314791795
0.02413151541
0.02508185214
0.02600255086
0.02689882009
0.02776720914
0.02861729451
0.02943980947
0.03022348423
0.0309603952
0.03163307976
0.03219260971
0.03252342973
0.03243780764
0.03239294813
0.03243979526
0.03258194223
0.03303435451
0.03365737601
0.03435797401
0.035105303
0.03587469971
0.0366953941
0.03753671277
0.03867786378
0.0398492175
0.04041458679
0.0888096901
0.0129873076
0.01021824181
0.006584399687
0.004959562445
0.004133340484
0.003848780786
0.004058683558
0.004750309214
0.005712857712
0.006833836836
0.008052372164
0.009332200309
0.01064586081
0.01197050339
0.01328818732
0.01458555038
0.01585243361
0.01708186426
0.01826934132
0.01941259328
0.02051082318
0.02156514913
0.02257871978
0.02355428881
0.02449767645
0.02541146962
0.02629958125
0.02716600603
0.02800578072
0.028814633
0.02959167175
0.03032565693
0.03099548546
0.03156945332
0.03200194173
0.03222357177
0.03218124045
0.03225113773
0.03251911588
0.03290429564
0.03328683325
0.03369177798
0.03425634945
0.03484205681
0.03546961781
0.03615745985
0.03721387945
0.03850556116
0.03911426799
0.08772531411
0.01298724174
0.01021565233
0.006581546996
0.00495517646
0.00412685175
0.003822928165
0.004001741464
0.004665836155
0.005595524312
0.00668183388
0.00786498649
0.009109292011
0.0103875869
0.01167725721
0.01296065211
0.014224627
0.01545914508
0.01665723347
0.01781451291
0.01892858378
0.01999870723
0.02102544969
0.02201161702
0.02296105511
0.02387835398
0.02476724959
0.02563418257
0.02648176432
0.02730964103
0.02811340486
0.0288904272
0.02963166717
0.03030600427
0.0308825081
0.03135064123
0.03168774551
0.03190189363
0.03210360641
0.0323318246
0.03258729934
0.03275128067
0.03290451604
0.03330884123
0.03380132717
0.03437093602
0.03504690079
0.03611556976
0.0375531654
0.0381806881
0.08690540185
0.01298718424
0.0102151341
0.006580948199
0.004954216603
0.004125387408
0.00382089535
0.003978737231
0.004619727013
0.00553015042
0.006596903382
0.007760239195
0.008985000862
0.01024416492
0.01151532853
0.01278082654
0.01402739539
0.01524512643
0.01642661512
0.01756746628
0.01866491936
0.01971824733
0.02072796297
0.02169729243
0.02262839008
0.02352716765
0.02439910908
0.02525133697
0.02609006482
0.02693019435
0.02775448311
0.02855500393
0.02931419062
0.02999642634
0.03057352407
0.03104497633
0.03141276563
0.0317055967
0.03195043332
0.03214939605
0.03233407187
0.03241504256
0.03249002561
0.03276876097
0.03321520361
0.03376966938
0.03450259861
0.03562171519
0.03716068238
0.03781335865
0.08654455962
0.0129871253
0.01021502818
0.006580783702
0.004953950405
0.004124981011
0.003820328688
0.003977012992
0.00460399047
0.005495433287
0.006547281165
0.007694363304
0.008902255142
0.01014393183
0.01139739501
0.01264497672
0.01387343899
0.01507298824
0.01623588593
0.01735770897
0.01843527144
0.01946752332
0.020455109
0.02140243637
0.02231320493
0.02319396962
0.02404754328
0.02488368784
0.02571860615
0.02655922336
0.02738979183
0.02819934373
0.02896686949
0.02964963404
0.03022702044
0.03070243477
0.03106028817
0.03132730345
0.03152759855
0.03166066336
0.03177158943
0.03180069484
0.03181765449
0.03210746407
0.0325835083
0.03321330571
0.03407352632
0.03522510677
0.03683156607
0.03728970367
0.08594017933
0.01298706713
0.01021493722
0.006580710114
0.004953880359
0.004124899
0.00382021147
0.003975393012
0.004600930737
0.005476155806
0.006521222829
0.007661145651
0.008862399803
0.01009744149
0.01134451218
0.01258572504
0.01380771833
0.0150004571
0.01615583643
0.01726891104
0.01833662996
0.01935890015
0.02033720527
0.02127626486
0.02217951752
0.0230515068
0.02389670584
0.02472777292
0.02555695868
0.02639240977
0.02722597074
0.02803782657
0.02879972214
0.02947663757
0.03003153464
0.03047061836
0.03082654353
0.03113564705
0.03136121569
0.03145032187
0.03155796125
0.03159972331
0.03173080829
0.03206587827
0.03250422232
0.03315028467
0.03401568199
0.03517238903
0.03678436563
0.03726315055
0.08589502524
0.01298700875
0.01021489121
0.006580649505
0.004953807871
0.004124804409
0.003820090457
0.003974900074
0.004600197249
0.005475556664
0.006520430937
0.007659548749
0.008859758899
0.01009332442
0.01133849198
0.01257724839
0.01379599337
0.01498434626
0.01613401124
0.01723996769
0.01830014952
0.01931530093
0.02028504928
0.02121014161
0.02209311594
0.02294035559
0.02375840051
0.02456750843
0.02538167817
0.02621604729
0.02705601565
0.02788332401
0.02865959835
0.0293543309
0.02991931254
0.03033462636
0.03061000737
0.03075627751
0.03089947199
0.03099685403
0.03112860155
0.03128297449
0.03155082335
0.03190266471
0.03235346932
0.03302150059
0.03389580905
0.03506252494
0.03668215987
0.03684452959
0.0853388132
0.01298695708
0.0102148326
0.006580599645
0.004953761602
0.004124749647
0.003820018876
0.003973997667
0.004598628296
0.005473741891
0.006518384735
0.007657163045
0.008856975917
0.01009061337
0.01133571548
0.01257379476
0.01379159765
0.01497688119
0.01612304859
0.01722430282
0.01828093027
0.01928756372
0.02024411999
0.02114158009
0.02198758583
0.02278457556
0.02355877161
0.02432453571
0.02511846747
0.02595789782
0.02681190224
0.02764905951
0.02842635729
0.02910433804
0.02971137103
0.03027532174
0.03086099871
0.03120027338
0.03129902897
0.03160110189
0.03181084736
0.03201934586
0.03222964257
0.03250570474
0.03288467463
0.0334667248
0.03426723396
0.0353785077
0.03696191095
0.03750867032
0.08618286399
0.01298690789
0.01021480937
0.006580567476
0.004953724204
0.004124699379
0.00381995366
0.003973643473
0.004597973738
0.005473311894
0.006517789184
0.00765653585
0.008855647332
0.01008853483
0.01133227198
0.01256871461
0.01378305343
0.01496462386
0.0161053692
0.01720223955
0.01824819348
0.01923738662
0.02015850565
0.02100819507
0.02177256329
0.02246898977
0.02311417948
0.0237774671
0.02452483129
0.02540582421
0.02636059872
0.02732136161
0.02820780202
0.02899238681
0.02953047947
0.02999160836
0.028814449
0.0281778407
0.02798818034
0.02797087215
0.02822200299
0.02856828345
0.02896946241
0.02944469636
0.03001812277
0.03083879667
0.03186478451
0.03318969575
0.03495202924
0.03516371718
0.08381293832
0.01298686659
0.01021475166
0.006580518577
0.004953678167
0.004124652304
0.003819893482
0.003973165985
0.004597239881
0.005472649168
0.006516895888
0.007655172877
0.008853997011
0.01008653866
0.01132963342
0.01256477516
0.01377691559
0.01495460647
0.01609265887
0.0171836165
0.01821884971
0.01918096638
0.02005473861
0.0208189299
0.02145271508
0.0219474491
0.02239442846
0.0228856121
0.0234451944
0.02425828056
0.02519778853
0.0262145539
0.02713113527
0.02797993424
0.02867926508
0.02964901681
0.03078477022
0.03056364072
0.02903956619
0.02855882016
0.02883705993
0.02909361493
0.02926283908
0.02946475697
0.02994894191
0.0306955037
0.03166062396
0.03293120859
0.03464313798
0.03474820204
0.08345933384
0.01298683159
0.0102147098
0.006580478373
0.004953637064
0.004124609866
0.003819839603
0.0039729217
0.004596971986
0.005472678238
0.006516847376
0.007654908918
0.008853323242
0.0100852444
0.01132737773
0.01256089215
0.01376962014
0.01494271023
0.0160722013
0.01715355699
0.01817207094
0.01909955934
0.0199047392
0.02053756844
0.0210007801
0.02150500413
0.02205107424
0.02263735458
0.02308714328
0.0240942721
0.02507708066
0.02635924868
0.02756307704
0.02851035334
0.02931404666
0.02965679443
0.03205149251
0.03472134114
0.03471322791
0.03576156481
0.03683387962
0.03737448477
0.03744627066
0.03737209465
0.03727888106
0.03737289054
0.03755569341
0.03810390797
0.03894846062
0.03946969116
0.08783880523
0.0129868064
0.01021467517
0.006580448547
0.004953608754
0.004124583873
0.003819805272
0.003972695129
0.004596773536
0.005472614814
0.00651692446
0.007654754909
0.008852871854
0.01008440457
0.01132587825
0.01255815413
0.01376448008
0.01493297073
0.01605390794
0.01712118007
0.01811748928
0.019003437
0.01972502289
0.02020628594
0.02072460374
0.02129675136
0.02194807497
0.02273931201
0.0221646713
0.02297477742
0.02217701039
0.02299797714
0.02433951285
0.02564304591
0.02641635561
0.02745730169
0.02881505974
0.02929290832
0.02893650068
0.0303026956
0.03142666296
0.03213081998
0.03232900756
0.03221418269
0.03194531675
0.03241258864
0.03313837247
0.03420924632
0.03576313912
0.03641071546
0.08535444872
0.01298679033
0.01021465626
0.006580430426
0.004953590604
0.004124565622
0.003819782788
0.003972595771
0.004596796021
0.005472750511
0.006517713432
0.007655577884
0.00885348104
0.01008465493
0.01132551253
0.01255674667
0.01376102022
0.01492629123
0.01604046755
0.0170939639
0.01807299994
0.01891996959
0.01957210808
0.0200166393
0.02057378232
0.02128280441
0.02217871948
0.02310343884
0.0235569791
0.02407983516
0.02304373124
0.02422296424
0.02689069096
0.02967540402
0.0306233891
0.03098325486
0.03028654143
0.02965894538
0.03018132921
0.03180231111
0.03339818618
0.03457039297
0.03526090667
0.03513472439
0.03459254595
0.03479546461
0.03520804267
0.03599645931
0.03730494726
0.0374171
0.08604982434
0.01298678497
0.01021465078
0.006580425727
0.004953586121
0.004124561704
0.003819778041
0.003972556314
0.004596776268
0.005472687447
0.006517966139
0.00765588054
0.008853697683
0.01008473451
0.01132536537
0.01255633284
0.01375963628
0.01492412451
0.0160329994
0.01708323835
0.01804320675
0.01886619784
0.01944013728
0.01985090847
0.02042664166
0.02122711491
0.02194686229
0.02269116207
0.0237227553
0.02321433722
0.02516401608
0.0298539123
0.03715650778
0.04411482878
0.04437392101
0.04396597223
0.04365797687
0.04184703295
0.04078217351
0.04058745805
0.04176024723
0.04310405886
0.04381800391
0.04381495066
0.04351300037
0.04379494473
0.04416687781
0.04484738689
0.04550115491
0.04572105353
0.09334062623
0.01298678981
0.01021466528
0.006580437017
0.00495359538
0.004124569963
0.003819787463
0.003972595775
0.004596727786
0.005472687877
0.006517414746
0.007655248219
0.008853169382
0.01008435629
0.01132522882
0.0125564747
0.01376076964
0.01492598915
0.01604023016
0.01709370759
0.01807277071
0.01891959529
0.01957163076
0.0200186865
0.02057546039
0.02128442143
0.02218055752
0.02310486843
0.02355530901
0.02470774521
0.02628981872
0.03457821295
0.04970787156
0.06502460371
0.06044992811
0.05692779345
0.05791064501
0.05146506201
0.04835167724
0.04639510271
0.0448844487
0.04422408588
0.0439465011
0.04318350859
0.04223666791
0.04205909936
0.04198991809
0.04229943013
0.04304412603
0.04249418616
0.09024130109
0.01298680534
0.01021468708
0.006580457445
0.004953615426
0.004124589824
0.003819812652
0.003972715141
0.004596740135
0.005472569124
0.006516782097
0.007654645875
0.008852803493
0.01008436705
0.01132586806
0.01255816143
0.01376451625
0.01493298638
0.01605408289
0.0171213976
0.0181176474
0.01900360929
0.01972501331
0.02020661219
0.02072441917
0.02129502977
0.02194532867
0.02273820629
0.02216930039
0.02350743565
0.02807940495
0.04313284236
0.0701826348
0.1279065351
0.1115806985
0.09889169474
0.09227106156
0.07900870109
0.0679937854
0.06154043951
0.05765187539
0.05396145907
0.05124577932
0.04907304483
0.0472593404
0.04618152916
0.04546912158
0.04517285585
0.04544086009
0.0439927568
0.09156200753
0.01298683057
0.01021471918
0.00658048529
0.004953644433
0.004124618622
0.003819850593
0.003972939687
0.004596950622
0.005472594479
0.006516774577
0.007654880086
0.008853319904
0.01008525541
0.01132739897
0.01256091959
0.01376966
0.01494275174
0.01607236146
0.01715361476
0.01817213578
0.01909971115
0.01990453395
0.02053717407
0.02099966265
0.02150085935
0.02204467511
0.02263397776
0.02337815109
0.02570511344
0.03305121579
0.05069732606
0.08442100458
0.1659125137
0.1764824463
0.1709515382
0.1725218876
0.1668388303
0.1468141999
0.1371354537
0.1331362674
0.1292000098
0.1260553209
0.123955822
0.1221250253
0.1206859562
0.119489072
0.1186498238
0.1184358133
0.1117577587
0.1563014978
0.01298686467
0.01021476296
0.006580526783
0.004953687006
0.004124661646
0.003819906858
0.003973209393
0.00459728243
0.005472656538
0.006516974873
0.007655307066
0.008854162259
0.01008672696
0.0113298373
0.01256500057
0.01377713788
0.01495482872
0.0160928872
0.01718403386
0.01821899923
0.01918160808
0.02005499626
0.02081949998
0.02145420947
0.02195326279
0.02240368282
0.02289491779
0.02362183258
0.0256607743
0.03153971719
0.04634030245
0.07261347639
0.1295342375
0.1139287627
0.1010104811
0.09305926432
0.08084083568
0.06946471948
0.06196637624
0.05777931256
0.0549005748
0.05298544689
0.05156522128
0.05050617045
0.04977859861
0.04943170808
0.04956239998
0.04979907331
0.04898492622
0.09755431601
0.01298690595
0.0102148102
0.006580568404
0.004953726632
0.004124704883
0.003819963181
0.003973668688
0.004598045586
0.005473334999
0.006517844462
0.00765662171
0.008855745596
0.01008863464
0.01133237428
0.01256882445
0.01378316256
0.01496473219
0.01610543468
0.01720247891
0.01824841504
0.01923808952
0.02015904079
0.02101088462
0.02178395827
0.02249046866
0.02312576932
0.0238029961
0.02461020539
0.02615508515
0.02963448403
0.03810573142
0.0526990719
0.06710961737
0.0625273702
0.05810269406
0.05498977749
0.05046558991
0.04693191547
0.04438652154
0.04295389939
0.04193483545
0.04118767699
0.04068126003
0.04039248264
0.04039335206
0.04066058955
0.04124672433
0.04231439828
0.04184221344
0.08988751342
0.01298695384
0.01021482674
0.006580596251
0.004953760566
0.004124754087
0.003820029424
0.003974071435
0.004598783406
0.005473884174
0.006518581843
0.007657396654
0.008857229857
0.01009088177
0.01133599692
0.01257409846
0.01379189579
0.01497721903
0.01612328371
0.01722473095
0.0182815343
0.01928863247
0.02024588254
0.021149159
0.02200710801
0.02281663046
0.02359407051
0.0243623476
0.02516033794
0.02619492119
0.02794975901
0.03168721219
0.0379781103
0.04371412957
0.04208006579
0.04049438682
0.03926711548
0.03769256347
0.03629556585
0.03561377922
0.03516903094
0.0349049554
0.03476525437
0.03476683453
0.03491746872
0.03537297766
0.03604491733
0.03700592801
0.0384087755
0.03818460982
0.08643268114
0.0129870056
0.01021488468
0.006580646061
0.004953807805
0.004124808979
0.003820100309
0.003974936661
0.004600271616
0.005475597685
0.006520518248
0.00765963614
0.008859824875
0.01009339746
0.01133857252
0.01257732189
0.01379607057
0.01498438867
0.01613403409
0.01723991791
0.01830021648
0.01931536594
0.02028592021
0.02121368221
0.02210187045
0.02295286054
0.02377171753
0.02457858044
0.02539175329
0.02625385568
0.02732203131
0.0289470124
0.03139697592
0.03369677679
0.03371503114
0.03326271586
0.03292574016
0.03257908587
0.03236921342
0.03231223205
0.03233975515
0.03240868115
0.03261055983
0.0329118564
0.03332472942
0.03394560924
0.03477261659
0.03588502973
0.03744236006
0.03771569832
0.0862795493
0.01298706294
0.01021492386
0.006580700326
0.004953875235
0.00412489826
0.003820216926
0.003975489071
0.004601112848
0.005476329079
0.006521464245
0.00766142104
0.008862732854
0.01009783522
0.01134499274
0.01258628401
0.01380835747
0.0150011835
0.01615665436
0.01726982804
0.01833769528
0.01936008203
0.02033843865
0.02127739595
0.02218099976
0.02305241909
0.02389677635
0.02472634163
0.02555606684
0.02639473043
0.02726928092
0.02823231717
0.02936867296
0.03043345138
0.03088094523
0.03080896991
0.0307516487
0.03075292931
0.03081430653
0.03092384946
0.03109326467
0.03119126296
0.03137494029
0.03176144369
0.03225246591
0.03295252786
0.03386777975
0.03506800146
0.03670875385
0.03719229709
0.08584598639
0.01298712095
0.01021500114
0.006580766749
0.004953942746
0.004124983257
0.003820342412
0.003977142873
0.004604130051
0.005495536479
0.00654744962
0.007694514689
0.008902344842
0.01014395276
0.01139734602
0.01264487343
0.01387328293
0.0150728003
0.01623567078
0.01735748705
0.01843507416
0.01946735915
0.02045493812
0.02140230952
0.02231318222
0.02319385073
0.02404686587
0.02488248024
0.02571708443
0.0265574267
0.02739061297
0.02821910787
0.02904884805
0.02981113584
0.03038518862
0.0307838027
0.03109777858
0.03135712782
0.03156432608
0.03170914549
0.03183517829
0.03187405615
0.03191344644
0.03222422787
0.03269519674
0.03331368383
0.0341476539
0.03529697121
0.03689593974
0.03747373168
0.08617815857
0.01298717901
0.01021509391
0.006580919728
0.004954195639
0.004125373553
0.003820886
0.003978550757
0.004619495611
0.0055299824
0.006596843776
0.007760245103
0.008985097707
0.01024437534
0.01151567495
0.01278132861
0.01402806174
0.01524600468
0.0164276828
0.01756871676
0.01866628732
0.01971964452
0.02072922367
0.02169803047
0.02262869294
0.02352661561
0.02439746691
0.02524869118
0.02608620759
0.02692584554
0.02775036229
0.02855304428
0.02931958634
0.03000956712
0.03058267852
0.03104122513
0.03139182413
0.03166597569
0.03190213748
0.03209977845
0.03228830151
0.03237810193
0.03246770158
0.03276681201
0.03323189887
0.03380914318
0.03453848564
0.03566554037
0.03718584637
0.03786606831
0.08660015644
0.01298723637
0.01021561934
0.006581525548
0.00495516381
0.004126847436
0.003822925244
0.004001902566
0.004666252803
0.00559611549
0.006682918641
0.007866116472
0.009110258091
0.0103883879
0.01167792011
0.0129611972
0.01422503959
0.01545946623
0.01665737907
0.01781441117
0.01892807848
0.01999773232
0.02102426909
0.02201034544
0.02295936552
0.02387584844
0.02476551869
0.02563164914
0.02647852697
0.02730661466
0.02810865166
0.02888628778
0.02962875594
0.03030545176
0.03088561542
0.03135849685
0.03170896065
0.03193708737
0.03214947538
0.03238587851
0.03264749236
0.03281665267
0.0329754964
0.0333415329
0.033844976
0.03443370013
0.03512480687
0.03620487065
0.03761584747
0.03828785367
0.08701945149
0.01298730143
0.01021817144
0.006584344871
0.004959513582
0.004133280847
0.003848723619
0.00405843468
0.004749893784
0.005712221568
0.006832649085
0.008051213283
0.009331008016
0.01064483341
0.01196975281
0.01328772847
0.01458537825
0.01585246442
0.01708196149
0.0182694871
0.01941275631
0.02051124159
0.02156577201
0.02257984961
0.02355597593
0.02449871827
0.0254130944
0.02630204349
0.02716942039
0.02800830502
0.02881945062
0.02959629078
0.03033119336
0.03100219199
0.03157837678
0.03201433561
0.03223725058
0.03219514304
0.03226459628
0.03253320996
0.03292041603
0.03330915359
0.03372262573
0.03426728655
0.03485931775
0.03550028989
0.03620009772
0.03726840438
0.03854690111
0.03917682982
0.08778106283
0.0129874082
0.0102315255
0.006596767122
0.004975871349
0.004189572327
0.003937613617
0.00419690991
0.004936813762
0.005945846537
0.007110665575
0.008370275326
0.009689269409
0.01103818076
0.01239517665
0.01374105572
0.0150624027
0.01634970571
0.01759656311
0.01879904531
0.01995533094
0.02106491055
0.02212999681
0.02315308497
0.02413718976
0.02509005925
0.02600833879
0.02690694961
0.02777497071
0.02862123029
0.02944468446
0.03023021908
0.03096932154
0.03164639301
0.03221203464
0.03254533648
0.03245820784
0.0324138945
0.03246199414
0.03260364523
0.03306342144
0.03369496234
0.03440466533
0.03516122873
0.03594067559
0.0367724903
0.03762308204
0.03876941421
0.03992906584
0.04051704042
0.08890227808
0.01298881494
0.01028658384
0.006646051161
0.005059080752
0.004323169663
0.0041044478
0.004497269935
0.005350218004
0.006465257236
0.007732741029
0.009091647273
0.01050239145
0.01193447504
0.01336194328
0.01476834532
0.01614023931
0.01746796797
0.01874580608
0.01997197094
0.02114552334
0.02226716344
0.02333992528
0.0243663606
0.02535069351
0.02630011737
0.02721557639
0.02810518177
0.02896898591
0.02980677437
0.0306212641
0.03140355762
0.03214611266
0.03283255525
0.03338765643
0.03355277484
0.03341017484
0.03322936239
0.03320474623
0.03332313935
0.03374451329
0.0345157352
0.03540043079
0.03633489293
0.03728004958
0.03824439921
0.03919175979
0.0403640468
0.0413690044
0.04183350758
0.08968993164
0.01300695801
0.01050253759
0.007004057321
0.005418955342
0.00470880114
0.004694828671
0.005308865791
0.00630097162
0.007515591704
0.008863665101
0.01028811072
0.0117478577
0.01321208773
0.01465775345
0.01606801528
0.01743240344
0.01874381153
0.01999832267
0.02119316837
0.02232934676
0.02340982327
0.02444048242
0.02542345544
0.02636538444
0.02727050874
0.02814555266
0.02899427778
0.02982072369
0.03062753537
0.03141431702
0.03218056965
0.03291611205
0.03362067583
0.03423185978
0.03463763488
0.03451441269
0.03432236586
0.03432029302
0.03447774396
0.0348339101
0.03583382157
0.03703397961
0.03831244581
0.03960483201
0.04091285009
0.04217740244
0.04365545786
0.04479142576
0.04472567634
0.09180261656
0.01309531576
0.009722212874
0.007202559084
0.00611186665
0.005903593822
0.006315780058
0.007184164877
0.00838895642
0.009834584876
0.01144180219
0.01314609792
0.01489607852
0.0166516371
0.01838221785
0.02006612006
0.02168871123
0.02324026293
0.0247156162
0.02611328812
0.02743481699
0.02868263947
0.02986269239
0.03098088845
0.03204639189
0.03306364697
0.03404733177
0.03499082018
0.03591372721
0.03680708689
0.03767863618
0.03853699105
0.0393842011
0.04024013232
0.04101331004
0.04150118083
0.04128445692
0.04105203952
0.04102119249
0.04119231526
0.04182239755
0.04315503025
0.04468244505
0.04625204742
0.04777675974
0.04925213423
0.05065527779
0.0521264444
0.05308904815
0.05487065863
0.1020992771
0.01361569872
0.008933454561
0.007385517994
0.007157556575
0.007792158483
0.009076114955
0.01084325883
0.01295061607
0.01527347691
0.01771197583
0.02019018887
0.02265262927
0.02505871727
0.02737872027
0.02959575441
0.03170307299
0.03369836664
0.03558139056
0.03735791125
0.03903797519
0.04063134813
0.04214945345
0.04360354618
0.04500251288
0.04635769686
0.0476826238
0.04899120169
0.05028246564
0.05158793578
0.05294175563
0.05453015001
0.05666957335
0.05951617253
0.06242698108
0.06336993118
0.06360564537
0.06403110502
0.06466576925
0.06555401152
0.06683759067
0.06865554277
0.07074201371
0.07296587537
0.07524114461
0.07755374455
0.07988131536
0.08232587125
0.08460132018
0.08817925564
0.1367327414
0.01307037525
0.007639181802
0.005131279124
0.004187121985
0.004034365437
0.004401928268
0.005147407709
0.006181197617
0.007433396084
0.00884550116
0.01036806002
0.01195871424
0.0135816553
0.01520757207
0.01681271253
0.01837844299
0.01989105659
0.02134068877
0.0227217075
0.02403021892
0.02526650211
0.02643134481
0.02752854044
0.02856067829
0.02953181379
0.0304459657
0.03131747455
0.03213534393
0.03300045616
0.03412600863
0.03609658658
0.03964606221
0.04517937065
0.051262455
0.05121787325
0.04949206888
0.04787407912
0.04635150206
0.0451887448
0.04429255697
0.04367634997
0.04331175021
0.04315339598
0.04317086895
0.04334995115
0.04369467234
0.0442195354
0.045249475
0.04642018543
0.0935819429
0.01226608047
0.007195075284
0.004661792989
0.003202016026
0.002346051246
0.001807972796
0.001450772417
0.001204017533
0.001028828535
0.0009023666546
0.0008104964909
0.0007440340884
0.0006967270626
0.0006641429954
0.0006430405944
0.0006310003016
0.0006261041647
0.00062687716
0.0006321800651
0.00064105264
0.0006531057174
0.0006679293895
0.0006856597248
0.0007065418313
0.0007307402444
0.0007591214639
0.0007911011662
0.0008282545681
0.0008703534665
0.000924857413
0.001005726185
0.001141804428
0.001360152931
0.001618206471
0.001621934844
0.001605167355
0.001600268803
0.001617702088
0.001690573343
0.001822894107
0.002029069405
0.002323532023
0.002723440579
0.003248456271
0.003922494999
0.004775880858
0.005819209614
0.009770060276
0.01076976709
0.01836410232
0.01212328325
0.007184776679
0.004667307835
0.003212316806
0.002354590041
0.001811910224
0.001448629904
0.001194487191
0.001010490891
0.0008737420379
0.000770136498
0.0006906099449
0.0006291238768
0.0005815512142
0.0005449735394
0.000517303944
0.0004969570802
0.000482893679
0.0004742651692
0.0004706041295
0.0004715123684
0.0004767602226
0.0004863216017
0.0005002123421
0.0005185755014
0.0005416423665
0.0005697874056
0.0006028889593
0.0006410935558
0.0006838222692
0.0007301409358
0.0007776562936
0.0008236117274
0.0008637511198
0.0008953209902
0.0009014202572
0.0008914989615
0.0009278519533
0.001042625278
0.001224711699
0.001478815935
0.001820343285
0.002269345469
0.00284778355
0.00358071814
0.004498823719
0.005619539218
0.009430922673
0.01045602487
0.0148529279
0.01213152758
0.007235542953
0.004716255594
0.003221078566
0.00236075474
0.001814526408
0.00144914142
0.001193725634
0.001009006141
0.0008719224676
0.0007682588894
0.0006889037347
0.0006277880372
0.000580712117
0.0005447271482
0.0005177226358
0.0004981537534
0.0004848575047
0.0004770072828
0.0004740320357
0.0004755855434
0.0004814201791
0.0004914805715
0.0005058622772
0.00052478926
0.0005484861961
0.000577329591
0.0006113559061
0.0006504619622
0.0006941404683
0.0007402207069
0.0007856861972
0.0008261989153
0.0008563648473
0.0008685790731
0.000847545152
0.0008431896241
0.0008621563607
0.0009312462981
0.001074416249
0.001292733787
0.001599961545
0.002015625077
0.002563270384
0.003269866556
0.004165985143
0.005709353116
0.0116674083
0.0125197038
0.01656332012
0.0121689312
0.007321271135
0.004718669177
0.003204728857
0.002351239836
0.001807615913
0.001443184915
0.001188238194
0.001003508108
0.0008659823954
0.0007614813846
0.0006809342969
0.0006183037947
0.0005694498102
0.0005314485934
0.0005022045648
0.0004802018622
0.0004643226872
0.0004537625943
0.0004479601513
0.0004465448969
0.0004493377328
0.0004562783804
0.0004674568364
0.0004831743316
0.0005035741144
0.0005291826266
0.0005597581188
0.0005952268654
0.0006341393692
0.0006753323467
0.0007151786399
0.0007488372488
0.0007714691502
0.0007790802583
0.000766794558
0.0007686250671
0.0007942666033
0.0008588911702
0.0009841048772
0.001182102569
0.001471495183
0.001873822055
0.002413050724
0.003119789425
0.00452543405
0.006368232663
0.01208003214
0.01284891732
0.01678336346
0.01216895765
0.007320530354
0.004718865704
0.00320342663
0.00235046767
0.001804192733
0.001440266985
0.001185657378
0.001001120073
0.0008637054933
0.0007592894989
0.0006788130183
0.0006162582821
0.000567484029
0.0005295654251
0.0005004055938
0.000478477452
0.0004626503208
0.0004520854377
0.0004461918691
0.0004445763133
0.0004470376961
0.0004535430832
0.000464232461
0.0004793928107
0.0004991229509
0.0005241157163
0.0005540476417
0.0005435568269
0.0005859354177
0.0007336175086
0.0008343575111
0.0008594721313
0.0008684418998
0.0008682968886
0.0008514264262
0.0008487754513
0.0008702170432
0.0009256807044
0.001028110721
0.001192062855
0.001442673221
0.00182361122
0.002396666639
0.00329909872
0.005111687956
0.006825842287
0.01224072086
0.01299830277