/*--------------------------------*- C++ -*----------------------------------*\
| =========                 |                                                 |
| \\      /  F ield         | OpenFOAM: The Open Source CFD Toolbox           |
|  \\    /   O peration     | Version:  2.2.1                                 |
|   \\  /    A nd           | Web:      www.OpenFOAM.org                      |
|    \\/     M anipulation  |                                                 |
\*---------------------------------------------------------------------------*/
FoamFile
{
    version     2.0;
    format      ascii;
    class       volScalarField;
    location    "7";
    object      nut;
}
// * * * * * * * * * * * * * * * * * * * * * * * * * * * * * * * * * * * * * //

dimensions      [0 2 -1 0 0 0 0];

internalField   nonuniform List<scalar> 
86889
(
0.0001421796508
0.0001448198089
0.0001846339157
0.000264487418
0.0004024975884
0.0006076415422
0.0008683303366
0.001162214863
0.001469648801
0.00177882715
0.002084185615
0.002383370511
0.002675327357
0.002959517421
0.00323585773
0.003504503573
0.003765703624
0.004019731276
0.004267038681
0.004508199214
0.004743822052
0.004974621265
0.005201220944
0.005424306116
0.005644671858
0.005863182218
0.006080775895
0.006298092022
0.006516044423
0.00673552588
0.006955881849
0.007179063366
0.007408579424
0.007651158874
0.00790294737
0.008168692249
0.008448721148
0.0087491554
0.009070289459
0.009405788201
0.00974889991
0.01010544104
0.01047890606
0.01087197227
0.01128588836
0.01172446505
0.01218224073
0.01272148811
0.01312827437
0.01284055991
0.0001394738013
0.0001692664393
0.0001772320819
0.000208389188
0.0002740478921
0.0003853836029
0.0005444501305
0.0007413013103
0.0009606858361
0.001189907203
0.001421289918
0.001650925072
0.001876924291
0.002098334223
0.002314645837
0.002525543931
0.002730832754
0.002930373129
0.003124212452
0.003312390932
0.003495079455
0.003672435987
0.003844791498
0.004012553538
0.004176143917
0.004336068425
0.004492558407
0.004646256352
0.004797301301
0.004946291038
0.005093586154
0.00523973026
0.005384938323
0.005529178228
0.005670768511
0.005816915596
0.005981635485
0.006179286695
0.006393037354
0.006617192119
0.006849100152
0.007089749221
0.007340647651
0.007603362327
0.007880192209
0.008176227319
0.00849575619
0.008857304832
0.009026887305
0.01007167169
0.0001388967467
0.0001924378489
0.0001708948832
0.0001737605139
0.0001975345539
0.0002582124909
0.0003735829025
0.0005317396522
0.0007145762289
0.00090830939
0.001105061377
0.001300894415
0.001493941449
0.001683295437
0.001868485481
0.002049261353
0.002225496765
0.002397138207
0.002564168512
0.002726618899
0.002884689731
0.003038607975
0.003188563916
0.003334802218
0.003477625481
0.003617370601
0.003754346743
0.003888870517
0.004021254399
0.004151766525
0.004280673923
0.00440815994
0.00453422551
0.004658987955
0.004781520515
0.004906851247
0.005043451314
0.00521273223
0.005394971139
0.005584034371
0.005779556302
0.00598306197
0.006197665942
0.006426425301
0.006672863141
0.006942422074
0.007238698441
0.007585078452
0.007493121244
0.008821267727
0.0001387576831
0.0001858749675
0.0001597087637
0.00015922107
0.0001774334732
0.0002182356605
0.0003092970961
0.0004525836294
0.0006293626707
0.0008228762496
0.001023040274
0.001224663664
0.00142510481
0.001622901482
0.001817317404
0.002007932576
0.002194429704
0.002376617618
0.002554447301
0.002727924917
0.00289709836
0.003062096324
0.003223056795
0.003380197022
0.003533773714
0.003684068211
0.003831400938
0.003976018156
0.004118233906
0.00425820445
0.004396011568
0.004531564802
0.004664631277
0.004794371597
0.004919185163
0.005042837323
0.005156588002
0.005289055126
0.005433990753
0.005580544139
0.005728418925
0.005884229595
0.006052062578
0.006235848617
0.006440090234
0.006672141732
0.006933736819
0.007258365243
0.007207061976
0.008524613173
0.0001387562263
0.0001842279062
0.0001579882807
0.0001558517103
0.0001706222205
0.0002074637494
0.0002851649603
0.0004169046301
0.0005852279086
0.0007731658642
0.0009697624658
0.001169270294
0.001368564226
0.001566028916
0.001760749885
0.001952184051
0.0021399974
0.002323987995
0.002504025947
0.002680046697
0.002852044876
0.003020115191
0.003184373581
0.003344979566
0.00350220259
0.003656285921
0.003807547043
0.003956090589
0.004102303215
0.004246201462
0.004387671264
0.004526579514
0.004662594698
0.00479503802
0.004922928368
0.005047629352
0.005167058368
0.00529118026
0.005420580364
0.005548306454
0.00567945367
0.005819008477
0.00597124058
0.006140880219
0.006332959188
0.006557431593
0.006818117402
0.007147203734
0.007112526714
0.008401154906
0.0001387546973
0.000183830038
0.0001575197142
0.0001551055506
0.0001677797264
0.0002017302593
0.0002740669233
0.000400285295
0.0005639846007
0.0007485217709
0.0009426715179
0.001140321805
0.00133822436
0.001534599627
0.001728470877
0.001919282575
0.002106665051
0.002290379605
0.002470269546
0.002646251688
0.00281829457
0.00298644342
0.003150832064
0.003311600258
0.003469018277
0.003623293816
0.003774704128
0.003923524275
0.00406977166
0.004213246029
0.004354505308
0.004493975391
0.004630853449
0.004764125124
0.004893253582
0.005018407717
0.005138176691
0.005257153953
0.005376835228
0.005499416796
0.005613971179
0.005728869111
0.005873968518
0.006036023518
0.006222840583
0.00644708832
0.006713243535
0.007043164933
0.0070222049
0.008277916274
0.0001387541017
0.000183754885
0.0001574117877
0.0001549073922
0.0001674298969
0.0002001033496
0.0002695403365
0.0003924506273
0.0005523142766
0.0007330653825
0.0009235956636
0.00111776351
0.001312264358
0.001505282692
0.00169583154
0.001883356281
0.002067489374
0.002247993011
0.002424718225
0.002597579345
0.002766547038
0.002931645346
0.003092987982
0.003250747427
0.00340515043
0.003556431249
0.003704941845
0.003850952354
0.003994755697
0.004136723183
0.004277109116
0.004416712776
0.004554163714
0.00468794487
0.004817920958
0.004943085113
0.005061846487
0.005179257135
0.005298587935
0.005421315784
0.005522262509
0.00561484824
0.005751676891
0.005915815658
0.00610682353
0.006338592483
0.00661284327
0.00694391385
0.006938069976
0.008187408331
0.0001387536909
0.0001837402293
0.0001573880598
0.0001548617051
0.0001673467746
0.0001999673276
0.0002676898582
0.000387993767
0.0005452615013
0.0007233640824
0.0009112615573
0.001102860435
0.001294853132
0.001485428169
0.00167359107
0.001858777254
0.002040624624
0.002218870818
0.002393362516
0.002563992618
0.002730723689
0.002893569823
0.003052652767
0.003208080796
0.003360104186
0.00350901353
0.003655182519
0.003799162429
0.003942387367
0.004085122453
0.004226778162
0.00436768562
0.004506262513
0.00464090822
0.004771600096
0.004897588808
0.005018226058
0.005136975563
0.005256665506
0.005379182121
0.005479910133
0.005572081288
0.005700084586
0.005867693742
0.006062852126
0.006297173556
0.006574098075
0.00690349795
0.006902952188
0.008152463786
0.0001387532748
0.0001837390747
0.0001573845742
0.0001548538905
0.0001673313457
0.0001999410197
0.000267562536
0.0003864990265
0.0005414921177
0.0007175935367
0.0009033479804
0.001092753752
0.001282507664
0.001470826926
0.001656716931
0.001839615613
0.002019169962
0.002195100782
0.002367254154
0.00253549999
0.002699782663
0.002860110751
0.003016674534
0.003169847446
0.003319917476
0.003466902541
0.003611139859
0.003753620017
0.003896174896
0.004038432824
0.004179787477
0.004320479309
0.004458734852
0.004592990834
0.004723297868
0.004848846911
0.004968859786
0.005086406748
0.005204363855
0.005324993808
0.005423805675
0.005515369828
0.005651515157
0.00582215979
0.006018536941
0.006251264891
0.00653171179
0.006861402689
0.006876970552
0.008102111613
0.0001387528727
0.000183737524
0.0001573828531
0.0001548516157
0.0001673276745
0.0001999342196
0.0002674161439
0.0003861872152
0.0005393402721
0.0007144832093
0.0008992419996
0.001087703603
0.001276524129
0.001463939614
0.001648942842
0.001830963982
0.002009637183
0.002184660203
0.002355851414
0.002523076783
0.002686339537
0.002845882747
0.003001937903
0.003154827195
0.003304886418
0.003451883493
0.003596088352
0.003738268358
0.003879808705
0.004021250973
0.004161877546
0.004301783903
0.004439257532
0.004572511409
0.004701517556
0.004825157334
0.004944716622
0.005061232326
0.005177858511
0.005296185367
0.005395298341
0.005504909738
0.005647695458
0.005809352125
0.006007812845
0.006242091693
0.006524329152
0.006855928704
0.006872856054
0.008101088213
0.0001387524648
0.000183737835
0.0001573828048
0.000154851394
0.0001673269946
0.0001999330069
0.0002673837621
0.0003861326972
0.0005393057301
0.0007144434314
0.0008991468998
0.001087538867
0.001276261109
0.001463551298
0.001648395406
0.001830209548
0.002008609005
0.002183277409
0.002354030203
0.002520848286
0.002683932052
0.002843585584
0.002999797243
0.003152395084
0.003301942461
0.003448471599
0.003592295143
0.003733829301
0.003874093356
0.004013895876
0.004153057407
0.004291613497
0.004428309401
0.004561610789
0.004691145363
0.004808716253
0.004910139581
0.005015288597
0.00513064823
0.005246173959
0.005358597308
0.005486545385
0.005627931605
0.005788412199
0.005989877741
0.006226489843
0.006511749633
0.006846722336
0.006882381481
0.008064805068
0.0001387521069
0.0001837372787
0.000157382187
0.0001548507516
0.000167325893
0.0001999309692
0.0002673056275
0.0003859780692
0.0005391160514
0.000714227622
0.000898902148
0.001087268227
0.001276010607
0.001463321825
0.001648157909
0.001829955519
0.002008226513
0.002182736801
0.002353286404
0.002520224662
0.002683550787
0.002843334076
0.002999247333
0.003151118437
0.003299140488
0.00344449276
0.003587171452
0.003727608572
0.003866974917
0.004005599708
0.004143464502
0.004280229274
0.004415571671
0.004551920057
0.004688837418
0.004802581606
0.004871545533
0.00492675054
0.005047251368
0.005176095693
0.005312373892
0.005453021941
0.005605095388
0.005774627259
0.005979016377
0.006217265734
0.006504219791
0.006841379812
0.006862177713
0.008124502261
0.0001387517653
0.0001837378946
0.0001573825331
0.0001548511084
0.000167326078
0.0001999311141
0.0002672813106
0.0003859243444
0.0005390884723
0.0007141938996
0.0008988797976
0.001087207356
0.001275912601
0.001463149796
0.001647897484
0.001829502947
0.00200755977
0.002181778286
0.00235227495
0.002519230021
0.002682317999
0.002841130194
0.002995485257
0.003145170394
0.003289783308
0.003429927407
0.00356760305
0.003703560249
0.003839956433
0.003977579447
0.004116646698
0.004256321125
0.004397451363
0.004542346283
0.004695983736
0.004579101064
0.004546265019
0.004555669242
0.004601370391
0.004716636721
0.004845605882
0.00498409748
0.005137810497
0.005313463316
0.005538291932
0.00580119249
0.00611641176
0.006481817898
0.006591822907
0.007875704829
0.0001387514789
0.0001837371601
0.000157381835
0.0001548503818
0.0001673252968
0.0001999297588
0.0002672422843
0.0003858564832
0.0005390266007
0.000714113492
0.0008987640668
0.001087077278
0.001275771012
0.001462984192
0.001647674151
0.001829171914
0.002007027448
0.002181117636
0.002351767077
0.002518858447
0.002681430003
0.002838812557
0.002990567555
0.003135848603
0.003274151034
0.00340728067
0.00353774682
0.003660901782
0.003787328894
0.003915781418
0.004047058303
0.004181931712
0.004325340118
0.004488336706
0.004671251811
0.004699643757
0.004636619209
0.004459215595
0.004452843937
0.004587475525
0.004731333401
0.004855496386
0.004983550134
0.005161133463
0.00538733229
0.005650897735
0.005965650117
0.006329567036
0.006376788504
0.007792944085
0.0001387512359
0.000183736829
0.0001573814741
0.0001548499846
0.000167325029
0.0001999292188
0.0002672254256
0.0003858380406
0.0005390425864
0.0007141312863
0.0008987744796
0.001087068342
0.001275731344
0.001462894962
0.001647497002
0.001828802466
0.00200639134
0.002180017343
0.002350426107
0.002517094991
0.002678812816
0.002834303423
0.002981709448
0.003120993976
0.003257330467
0.003392113722
0.003526142845
0.003633035858
0.003762462796
0.003853629575
0.003994314297
0.004142704655
0.004302071529
0.004489782731
0.004594078991
0.004822191583
0.004948142272
0.004492714311
0.004656647343
0.00490496551
0.005125273074
0.005282668611
0.005431580509
0.005595640778
0.005794330709
0.006011499255
0.006265540124
0.00656661823
0.006575263311
0.008187860492
0.0001387510611
0.0001837364021
0.0001573810717
0.0001548495497
0.0001673246781
0.0001999285318
0.0002672076477
0.0003858225276
0.0005390429119
0.0007141510058
0.0008987823454
0.001087061942
0.001275707464
0.001462838998
0.001647375881
0.001828548708
0.002005878716
0.002179028217
0.002348738694
0.002514359103
0.002674753026
0.002827862435
0.002970243772
0.003109196434
0.00324776371
0.003389001455
0.003539293119
0.003471014024
0.003617444876
0.003502821411
0.003594325463
0.003731376192
0.003881628126
0.00404876557
0.00423646568
0.004305779076
0.00431902892
0.004239520906
0.004422008997
0.004617428203
0.004809020814
0.004963869217
0.005093529851
0.005207441922
0.005436728648
0.005699077946
0.006010260081
0.006369358004
0.006416185514
0.00794294293
0.0001387509495
0.0001837362568
0.000157380911
0.0001548493777
0.0001673245648
0.0001999283402
0.0002672009451
0.0003858287508
0.0005390638857
0.0007142417761
0.0008988879549
0.001087162921
0.001275794155
0.001462894908
0.001647374707
0.001828429688
0.002005571753
0.002178337446
0.00234729119
0.002511939741
0.002670700703
0.002821181365
0.002954785082
0.003094465181
0.003242123095
0.003406606374
0.003561424372
0.003640834563
0.003668106054
0.003469346968
0.003564298407
0.003766311923
0.003999190936
0.004182182121
0.004350651008
0.004311254116
0.004352673229
0.004486962376
0.004669260622
0.004869030571
0.005070673004
0.005267654233
0.005387768159
0.005475883463
0.00569068993
0.005935706713
0.006225895233
0.006562384507
0.006565000512
0.008042540715
0.0001387509124
0.0001837362106
0.0001573808635
0.0001548493222
0.000167324541
0.0001999283028
0.0002671978142
0.000385827487
0.0005390585378
0.0007142681897
0.0008989225259
0.001087194673
0.001275819553
0.001462908047
0.00164737333
0.00182837206
0.002005464515
0.002177946089
0.002346674777
0.002510405147
0.002667919925
0.002815349169
0.002941424702
0.003080958032
0.003234721892
0.003364671031
0.003496867844
0.003666486845
0.003607188151
0.003290150324
0.003669251761
0.004257774705
0.004850086891
0.005077112636
0.005253364541
0.005420892292
0.005483189732
0.005620030085
0.005785297504
0.005992216301
0.006212202771
0.006419870782
0.006552942639
0.006657190258
0.006851412494
0.007059245689
0.007298021956
0.007580581853
0.007514030549
0.008901129647
0.0001387509458
0.0001837365214
0.0001573811383
0.0001548495748
0.0001673247692
0.0001999286022
0.0002672007908
0.000385821515
0.0005390564013
0.0007142102472
0.0008988510705
0.001087124991
0.001275755037
0.001462854926
0.001647333807
0.001828388521
0.002005526293
0.002178293171
0.002347244522
0.002511891994
0.002670645291
0.002821117892
0.002955089796
0.003094757032
0.003242374553
0.00340684482
0.003561584592
0.003640258835
0.003679146649
0.003579233786
0.004085654748
0.005097200932
0.006085247894
0.006139566054
0.006211110378
0.006370078115
0.006048909892
0.006051392563
0.006170385899
0.006310341365
0.006467424878
0.006644709268
0.006740759632
0.00680860288
0.006990625954
0.007193413481
0.007427481545
0.007700216704
0.007521243512
0.008670690476
0.0001387510538
0.0001837367788
0.000157381406
0.0001548498611
0.0001673250014
0.0001999290027
0.0002672093303
0.0003858188596
0.000539037368
0.000714135093
0.0008987677867
0.001087049285
0.001275695889
0.001462828132
0.001647364874
0.001828537891
0.002005864994
0.002179020157
0.002348731569
0.002514346644
0.002674737319
0.00282783486
0.002970226174
0.003109160573
0.003247556216
0.003388617499
0.003538901478
0.003470760978
0.003619264885
0.003675994056
0.004610225781
0.006229342403
0.008258172173
0.008102438872
0.007985526262
0.007817782206
0.007341328119
0.006918061564
0.006861045163
0.007005143688
0.007086673041
0.007217993252
0.007351069591
0.007467153869
0.007644159991
0.007821905012
0.008021194295
0.008244759663
0.00795597138
0.008957844659
0.0001387512291
0.0001837371187
0.0001573817051
0.0001548502475
0.0001673253502
0.0001999297317
0.0002672266034
0.0003858351155
0.0005390324717
0.0007141208525
0.0008987665986
0.001087061249
0.001275723906
0.001462886508
0.001647486768
0.001828790187
0.002006375689
0.00218000354
0.002350404053
0.002517066944
0.002678781852
0.002834253811
0.002981645357
0.003120868036
0.003256931043
0.003391327327
0.00352544138
0.003633736469
0.003785948227
0.004154184913
0.005246248955
0.007061665153
0.008281835166
0.09493928999
0.0897814719
0.06659576511
0.06389024609
0.05267605642
0.04830039232
0.04693670349
0.04544557487
0.04388351506
0.04264707951
0.04149149478
0.04046424924
0.03949005659
0.03860457313
0.03774385076
0.03334867911
0.02096340393
0.0001387514657
0.0001837375339
0.0001573821439
0.0001548507571
0.000167325765
0.0001999305673
0.0002672459182
0.0003858602314
0.0005390265015
0.0007141195335
0.000898774319
0.001087089202
0.001275783465
0.001462996057
0.00164768501
0.001829179247
0.002007030041
0.002181114611
0.002351766113
0.002518839853
0.002681420651
0.002838785102
0.002990535766
0.003135834033
0.003274348526
0.003407803531
0.003538246902
0.003661979721
0.003806944993
0.004113008358
0.005007589431
0.006537998563
0.008434259599
0.008369107538
0.008288120843
0.008415224643
0.008024012625
0.007517059964
0.007273508894
0.007314376927
0.007424637584
0.007576154506
0.007735015744
0.007897683369
0.008066216307
0.008263638907
0.00849044116
0.008759841248
0.008495406676
0.009513551488
0.000138751752
0.0001837379469
0.0001573825817
0.0001548512052
0.000167326326
0.0001999316222
0.0002672832017
0.0003859308964
0.0005390898962
0.0007141974616
0.0008988848396
0.001087211811
0.00127591508
0.00146314975
0.001647894371
0.001829495024
0.002007545456
0.002181754024
0.002352249963
0.002519196183
0.002682294356
0.002841093227
0.002995509811
0.003145613883
0.003291551497
0.003431143002
0.003569042798
0.003705899039
0.003855264594
0.004074461885
0.004577809092
0.005509067536
0.006400462965
0.006449288975
0.006451813561
0.006541479722
0.006401562831
0.006320859929
0.006316353816
0.006421875608
0.006547691579
0.006679371392
0.006818871216
0.006969307361
0.007148342542
0.007349919422
0.00758475818
0.007855569122
0.007701393749
0.008664835472
0.0001387520846
0.0001837371533
0.0001573821123
0.0001548507633
0.0001673261603
0.0001999316345
0.0002673120643
0.0003859932972
0.0005391305507
0.0007142470888
0.0008989240442
0.001087290318
0.001276031483
0.001463340342
0.001648173569
0.001829965442
0.002008231478
0.002182727804
0.002353275191
0.00252021335
0.002683551684
0.002843358395
0.0029995045
0.003152195767
0.003302033496
0.00344835124
0.00359112197
0.003731661997
0.003875018994
0.004036841296
0.004278814865
0.004684707192
0.005118103603
0.00523383291
0.005321679132
0.005424919627
0.005449476978
0.005467821519
0.005566009509
0.005676180666
0.005793631984
0.005913830734
0.006044193534
0.006190633381
0.006383914015
0.006605839796
0.006868290935
0.007172062724
0.00713332165
0.008226638691
0.0001387524435
0.0001837376642
0.0001573826758
0.0001548513509
0.0001673271395
0.0001999334501
0.0002673865108
0.0003861391667
0.0005393084186
0.0007144493766
0.0008991511439
0.001087539026
0.001276258835
0.001463545815
0.001648384627
0.001830192424
0.002008581473
0.002183238001
0.002353974673
0.002520783465
0.002683852835
0.002843521979
0.002999848011
0.00315287408
0.003303080468
0.003449941178
0.003593706144
0.003735158624
0.003875940346
0.004020802946
0.004181618958
0.004377979259
0.004589267907
0.004734055507
0.004857149538
0.004978066572
0.005080022592
0.005187147062
0.005303865291
0.005421192293
0.005534906919
0.005663895386
0.00580564286
0.005965585115
0.006162026683
0.006390900933
0.00666467864
0.006984779731
0.006976392251
0.008159430444
0.000138752844
0.0001837372115
0.0001573825992
0.000154851451
0.0001673277136
0.0001999346004
0.000267424749
0.0003862053188
0.0005393581624
0.000714507266
0.0008992680332
0.001087732633
0.001276555444
0.001463973915
0.001648978367
0.00183099933
0.002009671408
0.002184691928
0.002355879619
0.00252310203
0.00268635895
0.002845891037
0.003001925875
0.003154805157
0.003304827052
0.003451767709
0.003595880533
0.003737995573
0.003879529307
0.004021804714
0.004166061948
0.004315758084
0.004466476812
0.004604546993
0.004731661953
0.004849787512
0.004963826465
0.00507477572
0.005185492743
0.005298318404
0.005393467722
0.005500722102
0.005642755311
0.005805075628
0.006005455313
0.006241678544
0.006525298803
0.00685676286
0.006871026569
0.008095811971
0.0001387532454
0.0001837382962
0.000157383951
0.0001548534554
0.0001673312008
0.0001999414834
0.0002675734092
0.0003865117108
0.0005415009651
0.0007176074332
0.0009033584882
0.001092756157
0.001282500272
0.00147080824
0.0016566865
0.001839571877
0.002019112456
0.002195027891
0.00236716507
0.002535394171
0.002699658502
0.002859963967
0.003016504077
0.003169651865
0.003319687191
0.003466614392
0.00361078255
0.003753184874
0.003895651189
0.004037870523
0.004179539558
0.004321562412
0.004461937945
0.004597322937
0.004727542266
0.004853235074
0.004973488226
0.005091202677
0.005209320958
0.005330221627
0.005429448901
0.005520964149
0.005656980818
0.005827353029
0.006023445242
0.006256929022
0.006536701864
0.006866213334
0.006874079394
0.008117920781
0.0001387536557
0.0001837391201
0.0001573871558
0.0001548609317
0.0001673461602
0.0001999667685
0.0002676726516
0.0003879686605
0.0005452392239
0.0007233491252
0.0009112494322
0.001102852402
0.001294849937
0.001485430388
0.001673598986
0.001858790291
0.002040644299
0.002218894693
0.002393388502
0.002564015318
0.002730735943
0.002893560252
0.00305260052
0.003207977819
0.003359927654
0.0035087401
0.003654800583
0.003798651633
0.003941751622
0.004084368646
0.004225949842
0.004366898454
0.004505567788
0.004640151541
0.004770662824
0.004895993566
0.005015989373
0.005134280111
0.005253668973
0.005375956567
0.005476582096
0.005568752079
0.005696805747
0.005863691413
0.006057579318
0.00629172246
0.006567728014
0.0068981613
0.00689681391
0.008154346863
0.0001387540652
0.000183753927
0.0001574109893
0.0001549067025
0.0001674293899
0.0002001027209
0.0002695544137
0.0003924919744
0.0005523762166
0.000733178095
0.0009237165407
0.001117872979
0.001312359661
0.001505362962
0.001695895412
0.001883400438
0.002067513565
0.002247990567
0.002424682263
0.002597498697
0.002766412801
0.002931461865
0.003092755976
0.003250452411
0.003404771402
0.003556004539
0.003704428577
0.003850341191
0.003994060829
0.004135901818
0.004276191224
0.004415710198
0.004553093171
0.004686836835
0.004816788366
0.004942421824
0.00506178627
0.005179782808
0.005299611593
0.005422739709
0.005524001239
0.005616848865
0.005745335642
0.005908699351
0.006098549635
0.006328725183
0.006601337873
0.006933336375
0.006926700028
0.008192744349
0.0001387546553
0.0001838280725
0.000157517968
0.0001551036721
0.0001677768144
0.0002017265188
0.0002740440345
0.0004002411354
0.0005639118624
0.0007483877971
0.0009425286742
0.001140165388
0.001338068919
0.001534453298
0.001728335287
0.001919157921
0.002106546455
0.002290258413
0.002470141532
0.002646111706
0.002818148548
0.002986287862
0.003150675063
0.003311444719
0.003468822217
0.003623082002
0.003774479166
0.003923293025
0.004069478967
0.004212955949
0.004354190247
0.00449364265
0.004630495665
0.004763748403
0.00489287211
0.005018014325
0.005137888885
0.005257000247
0.005376807846
0.005499537088
0.005614266259
0.005729351165
0.005869217258
0.006030237617
0.006215951479
0.006438851197
0.006703455395
0.007033080434
0.007012209033
0.008279691645
0.0001387561941
0.00018422918
0.0001579894956
0.0001558526631
0.000170623394
0.0002074670753
0.0002852410857
0.0004170517033
0.0005854222707
0.0007733951447
0.0009700124467
0.001169561751
0.00136888093
0.0015664026
0.001761147697
0.001952589933
0.00214040692
0.002324393975
0.002504426881
0.002680447255
0.00285244431
0.00302051152
0.003184771889
0.003345379953
0.003502665595
0.003656688467
0.003807976349
0.003956499423
0.004102586444
0.004246417973
0.004387855825
0.004526754308
0.004662798724
0.004795321838
0.004923271994
0.005047962102
0.005167646976
0.005292091587
0.005421476494
0.00554905659
0.005680088174
0.005819561077
0.005971628466
0.006140984765
0.006332536633
0.006556224429
0.006816073766
0.007144728609
0.007108995477
0.008407415559
0.0001387698881
0.0001858853422
0.0001597325984
0.0001592433471
0.0001774523378
0.0002182499216
0.0003092501711
0.0004524859632
0.0006292374739
0.0008227390118
0.001022898346
0.00122452481
0.001424974655
0.001622742995
0.001817166142
0.002007781271
0.002194269659
0.002376454507
0.002554299053
0.002727785212
0.002896955546
0.003061944809
0.003222895738
0.003380010256
0.003533610783
0.003683894137
0.003831239742
0.003975880969
0.004118020199
0.004257895385
0.004395525647
0.004530900645
0.004663844343
0.00479352017
0.004918317863
0.005042112677
0.005156040293
0.005288699989
0.005433656644
0.00558020693
0.005728075523
0.005883878225
0.00605167568
0.00623538349
0.006439423144
0.006671036167
0.006932324019
0.007256330473
0.00720612585
0.008528660058
0.0001389085658
0.0001924589344
0.0001709282039
0.0001737955282
0.0001975754809
0.0002584196244
0.0003739218825
0.0005321762472
0.0007151136221
0.0009089360572
0.001105764885
0.00130166885
0.001494781411
0.00168419487
0.001869429041
0.002050263862
0.002226563667
0.002398269214
0.002565336173
0.00272782732
0.002885916896
0.003039851436
0.003189798334
0.003336039847
0.003478859144
0.003618601522
0.003755584148
0.00389012498
0.004022531524
0.00415307802
0.004281997342
0.004409485533
0.004535551964
0.004660308751
0.004782849734
0.004908188961
0.00504471628
0.005214001486
0.005396246054
0.005585394633
0.005781039027
0.005984679867
0.006199396999
0.006428202987
0.006674618376
0.006944065024
0.007239875125
0.007585223829
0.007495570484
0.008831541328
0.0001394739057
0.0001692666834
0.0001772198292
0.0002081743908
0.0002736512283
0.0003849112068
0.0005438979532
0.0007406571975
0.0009599654028
0.001189126044
0.001420452004
0.001650031071
0.001875976931
0.002097331625
0.002313582517
0.002524426201
0.002729650761
0.002929150258
0.003122919975
0.003311056267
0.003493638709
0.003670900547
0.003843180334
0.004010883091
0.004174380203
0.004334257198
0.004490736957
0.004644400232
0.00479550753
0.004944489691
0.00509174794
0.005237819432
0.005383040262
0.0055273396
0.005668941542
0.005815090135
0.00597977314
0.006177453161
0.006391247706
0.006615457295
0.006847473943
0.007088305799
0.007339407924
0.007602328126
0.007879305561
0.008175469707
0.0084946509
0.008855394382
0.009025064944
0.01007618523
0.0001421796078
0.0001448180157
0.0001846340262
0.0002645257366
0.0004026621868
0.0006079478039
0.0008687013421
0.001162594351
0.001470011804
0.001779158183
0.002084470008
0.002383598008
0.002675485862
0.002959604546
0.003235870156
0.003504439812
0.003765553734
0.004019481814
0.004266673392
0.004507731496
0.004743285367
0.004974005034
0.005200501087
0.005423478404
0.005643727669
0.005862094749
0.006079467953
0.006296644471
0.006514322559
0.00673351188
0.006953684441
0.007176654654
0.007405767355
0.007648100294
0.007899637607
0.008165226033
0.00844509102
0.008745382171
0.009066384652
0.009401559411
0.0097443674
0.01010063836
0.01047384143
0.01086663202
0.01128024142
0.01171844532
0.01217616133
0.01271485715
0.01312087584
0.01284284617
0.0001393167608
0.0001144854057
0.0001095918044
0.0001262308815
0.0001719798394
0.0002584293377
0.0003924854179
0.0005701996023
0.0007789597465
0.001005323211
0.001239658193
0.001476269381
0.001712029927
0.001945246365
0.0021748342
0.002400039111
0.002620320814
0.002835273194
0.003044640192
0.003248230634
0.003446025461
0.003638066766
0.003824511377
0.004005515479
0.004181324785
0.004352223589
0.004518749045
0.004681038905
0.004840920493
0.0050028864
0.005181296142
0.005414578847
0.005753968592
0.006160192336
0.006344509347
0.006455322322
0.006552878623
0.006632054792
0.006734281195
0.006849367038
0.006981518622
0.007128316851
0.00728588851
0.007454013521
0.007635678723
0.007837348775
0.008065753759
0.008356350083
0.008548378011
0.009214303752
0.0001349700644
0.0001099818157
9.440273907e-05
8.360813215e-05
7.647717802e-05
7.165603645e-05
6.843426741e-05
6.64490184e-05
6.551591464e-05
6.55388588e-05
6.646281502e-05
6.82429548e-05
7.08246474e-05
7.413536265e-05
7.808628249e-05
8.258005848e-05
8.750949849e-05
9.277729693e-05
9.830185289e-05
0.0001040107179
0.00010989341
0.0001159372575
0.0001221935794
0.0001287258796
0.000135599735
0.0001429503883
0.0001507742804
0.0001592836347
0.0001685799192
0.0001797106577
0.0001947325461
0.0002170516298
0.0002489156865
0.0002854971008
0.0002981813757
0.0003091315505
0.0003232958702
0.0003435823969
0.0003769364038
0.0004273469105
0.0005013551594
0.0006079882696
0.0007599783026
0.0009749382824
0.001276522485
0.001694294002
0.002263414701
0.002934739502
0.003561598997
0.003241244709
0.0001340100892
0.0001114253143
9.570285546e-05
8.475937795e-05
7.738935357e-05
7.223338271e-05
6.854441268e-05
6.590222184e-05
6.40596424e-05
6.286824184e-05
6.223757848e-05
6.210929248e-05
6.244238628e-05
6.320703628e-05
6.437553472e-05
6.592303904e-05
6.781756748e-05
7.00469654e-05
7.259118734e-05
7.545714563e-05
7.864832444e-05
8.218314601e-05
8.610378802e-05
9.046015107e-05
9.532062615e-05
0.0001007686925
0.0001069102326
0.00011379947
0.0001215216721
0.0001300833027
0.0001394467637
0.0001494118973
0.0001597402977
0.0001700960326
0.0001804839971
0.0001895086269
0.0001992014184
0.0002190792091
0.0002561220713
0.000313527718
0.0003973283256
0.0005176155091
0.000688504404
0.0009287854349
0.00126254226
0.001718084819
0.002324901878
0.002805511275
0.003446446646
0.003205801656
0.0001340644073
0.0001117537824
9.617692906e-05
8.475820329e-05
7.738398247e-05
7.214077327e-05
6.838315658e-05
6.568673024e-05
6.380840942e-05
6.260391998e-05
6.198578288e-05
6.190158198e-05
6.231619019e-05
6.319891066e-05
6.452407905e-05
6.626848169e-05
6.840874231e-05
7.091958294e-05
7.378400839e-05
7.699511096e-05
8.056133091e-05
8.449676488e-05
8.883807561e-05
9.364232397e-05
9.898654101e-05
0.0001049533568