/*--------------------------------*- C++ -*----------------------------------*\
| =========                 |                                                 |
| \\      /  F ield         | OpenFOAM: The Open Source CFD Toolbox           |
|  \\    /   O peration     | Version:  2.2.1                                 |
|   \\  /    A nd           | Web:      www.OpenFOAM.org                      |
|    \\/     M anipulation  |                                                 |
\*---------------------------------------------------------------------------*/
FoamFile
{
    version     2.0;
    format      ascii;
    class       volScalarField;
    location    "7";
    object      p;
}
// * * * * * * * * * * * * * * * * * * * * * * * * * * * * * * * * * * * * * //

dimensions      [0 2 -2 0 0 0 0];

internalField   nonuniform List<scalar> 
86889
(
591.6273758
591.283612
591.1481702
590.9809059
590.7253042
590.4427925
590.1513142
589.831414
589.4709955
589.06694
588.6152898
588.1103374
587.5447932
586.9111404
586.1991772
585.3983858
584.4972426
583.4817913
582.3366076
581.0437469
579.5816416
577.9265334
576.0490277
573.9174988
571.4907197
568.7262094
565.5649778
561.9439304
557.7837782
552.9899374
547.4356363
540.9865689
533.4865706
524.7649026
514.6507593
502.8829368
489.29291
473.4967909
455.1989117
434.1042982
409.872408
382.1572017
350.6741701
315.2553229
275.8487679
232.5823516
185.7783321
136.2748504
85.43251554
39.09013585
591.476257
591.2180185
591.0389326
590.8418134
590.6166645
590.3650299
590.0893097
589.7833831
589.438886
589.0504343
588.6135188
588.1227582
587.5713819
586.9518685
586.2544548
585.4687229
584.5833153
583.5840445
582.4559246
581.1821353
579.7394905
578.1074177
576.2545584
574.1504267
571.757786
569.0295086
565.9111861
562.3397679
558.2366708
553.5075914
548.0355785
541.6804803
534.2984749
525.6969743
515.7065818
504.0704974
490.7318724
475.0411882
456.8770789
435.9457308
411.8599922
384.2552708
352.8369663
317.4150445
277.9140672
234.4165593
187.1936802
136.9243376
85.32872342
38.05937122
591.4768885
591.3053374
591.1577461
590.9801277
590.7676381
590.5259796
590.2603529
589.9588602
589.613871
589.2243042
588.788282
588.3006477
587.7548852
587.1438872
586.4578172
585.6876642
584.8208089
583.8447111
582.7442594
581.5000386
580.0945114
578.5017734
576.6978826
574.6482823
572.3201662
569.6658956
566.636959
563.1686668
559.1896322
554.6039168
549.3015655
543.1390172
535.9776882
527.6232856
517.8945409
506.5504062
493.5232999
478.1982377
460.3918081
439.8063775
416.0072664
388.6309304
357.3435244
321.9458501
282.2972923
238.4558743
190.6765968
140.3112472
87.03839445
39.46028346
591.4853255
591.3083781
591.1460163
590.9492545
590.7514145
590.5294451
590.2675255
589.9815993
589.6579243
589.2892018
588.8758773
588.4148632
587.8987751
587.3193852
586.6684568
585.9346406
585.1081402
584.1747423
583.1207545
581.9293255
580.5818545
579.0553213
577.3249734
575.3606098
573.1285741
570.5878635
567.6897317
564.3758564
560.5740928
556.1987798
551.1362684
545.2608823
538.4226403
530.4331902
521.0849668
510.1570813
497.4620146
482.6277283
465.3477905
445.244671
421.8769434
394.8453116
363.7884577
328.4302954
288.6019483
244.3841759
196.2508424
145.1614414
89.77879575
40.69685884
591.5677521
591.4058312
591.267049
591.0891952
590.9096732
590.7234466
590.4885245
590.2148288
589.905274
589.5508978
589.1504612
588.7047678
588.2069388
587.6507414
587.0279832
586.3295696
585.544262
584.6589432
583.6598865
582.5313508
581.2550804
579.8102435
578.1731287
576.3161263
574.2079365
571.811801
569.0820556
565.9660362
562.3946113
558.2862008
553.5337878
548.0135787
541.5739359
534.0321342
525.1824543
514.8207855
502.6854561
488.5077647
471.9081341
452.4411935
429.6487388
403.0850713
372.3373468
337.0547717
297.0078241
252.3858275
203.3873933
150.5713242
93.18779283
42.26314989
591.6608259
591.4956815
591.3549649
591.1733493
590.990478
590.8090857
590.5969545
590.3363179
590.0447553
589.7176745
589.3473197
588.937593
588.4814652
587.969923
587.3955287
586.7500988
586.0236886
585.2042671
584.2785122
583.231671
582.0463444
580.7032099
579.1805085
577.4535275
575.4939194
573.2693559
570.7394375
567.8583676
564.5587157
560.7694777
556.3904982
551.2910859
545.3121232
538.2885122
530.0320835
520.3369868
508.9245933
495.5246007
479.7237026
461.0399303
438.9662874
412.9951483
382.6551522
347.4857363
307.1856601
261.8910014
211.5091709
156.9941376
97.29552153
44.08787013
591.8014082
591.6444067
591.5166896
591.351582
591.1860914
591.0228737
590.8365205
590.6109929
590.3416866
590.0287553
589.6856722
589.3048039
588.8821144
588.4104486
587.882895
587.2918098
586.6279146
585.8801323
585.0358326
584.0808404
582.9984427
581.7703336
580.3763279
578.7944309
576.9997183
574.9654972
572.6571958
570.0359082
567.0451982
563.6153366
559.6482168
555.0198865
549.5689509
543.1453451
535.5644325
526.6174762
516.0514637
503.5301318
488.6293598
470.8314606
449.5681715
424.2772747
394.4117736
359.3943156
318.7775387
272.51048
220.6780928
164.3903936
102.0291175
46.21718299
591.9545121
591.7970932
591.6715113
591.5087078
591.3485962
591.1922812
591.0201004
590.8152984
590.5714059
590.2937213
589.9855901
589.6458525
589.2697879
588.8509964
588.3830758
587.8590935
587.2706298
586.6074651
585.8576647
585.0075922
584.0416716
582.9425123
581.6909972
580.2677355
578.6504455
576.8192183
574.74648
572.4035639
569.7438681
566.6994024
563.1792058
559.0640811
554.1897863
548.4032328
541.5194658
533.3428471
523.6567007
512.1157895
498.2370702
481.4260212
461.0639064
436.5260469
407.1775146
372.3260434
331.3773523
284.1076388
230.6551244
172.4716935
107.1674734
48.50594319
592.1405682
591.9888967
591.8732345
591.7232453
591.5808459
591.4394812
591.2828899
591.1094065
590.8981007
590.6530075
590.3768945
590.0746207
589.743574
589.3775976
588.9705732
588.516354
588.0075071
587.4346377
586.7865074
586.0497337
585.2090327
584.24677
583.1453831
581.8867219
580.449738
578.8226345
576.9867096
574.9284752
572.6097538
569.9620395
566.9081676
563.3319002
559.0761767
553.996976
547.9155095
540.5912271
531.8422241
521.2889113
508.4250741
492.6080807
473.1675716
449.3961954
420.5775057
385.8767187
344.6093732
296.3780258
241.2537995
181.0688803
112.6797428
51.00720981
592.3386637
592.1881603
592.0750551
591.9313722
591.7932984
591.6696951
591.5343824
591.381334
591.1973579
590.9899766
590.7525916
590.4939799
590.214381
589.908166
589.5694882
589.1930158
588.772322
588.2988267
587.76189
587.1480168
586.4422784
585.6264895
584.6809694
583.5904027
582.3350144
580.9025541
579.2945806
577.5099764
575.5307798
573.3007754
570.7407575
567.7165687
564.0583276
559.6199646
554.2419506
547.7020031
539.8866993
530.4514281
518.740491
503.9907719
485.4947139
462.4907737
434.159055
399.5770822
357.9430109
308.7337389
251.9043531
189.5900353
118.1050628
53.44639783
592.5595643
592.4134439
592.3110421
592.1767812
592.0544131
591.9466493
591.8322314
591.7034957
591.5484486
591.3757335
591.177695
590.9638916
590.736266
590.4904956
590.2217023
589.9255569
589.5966769
589.2273577
588.8077321
588.3247684
587.7625323
587.1008864
586.31441
585.387491
584.3050268
583.0564111
581.6467551
580.0957246
578.4142639
576.5840883
574.5211194
572.0948464
569.140731
565.4852032
560.9169981
555.1955574
548.2086998
539.6682506
529.0002505
515.281701
497.7081351
475.4364846
447.5478257
413.0463957
371.0149206
320.8646829
262.431357
198.0393991
123.5242708
55.93852615
592.7856384
592.642389
592.545096
592.4203666
592.3108517
592.2184814
592.1236683
592.0187592
591.8919744
591.7536026
591.5958187
591.4286773
591.2552965
591.0725092
590.8765863
590.6644188
590.4317804
590.1719652
589.8769068
589.5339478
589.1219703
588.6187052
587.9959856
587.2297252
586.3066602
585.2220133
583.9949998
582.6697841
581.2918138
579.8549717
578.2581307
576.3192844
573.8549845
570.6748345
566.6462583
561.6326275
555.8251101
548.6762554
539.142836
526.4365854
509.7226521
488.0914004
460.546433
426.0009767
383.4725766
332.2828579
272.236045
205.7329986
128.418139
58.15234004
593.0280099
592.8878614
592.7968632
592.6818408
592.5856103
592.5098424
592.4352975
592.3550427
592.2567454
592.1525424
592.0346855
591.9136697
591.7939453
591.6736208
591.5503421
591.4224057
591.2870175
591.1396717
590.9753805
590.7760488
590.5194618
590.1812572
589.7305747
589.1240166
588.3291921
587.3417548
586.192685
584.9778587
583.8223604
582.7964465
581.7732439
580.5485847
578.9148129
576.5843437
573.2585091
568.6255815
563.1592212
556.6956934
548.361658
536.8295358
521.0484602
500.0562195
472.81045
438.2305308
395.2346469
343.0950622
281.537266
213.0479406
133.0920737
60.3165205
593.2732633
593.135832
593.0503162
592.9442182
592.8598744
592.7995059
592.7438595
592.6866364
592.6159459
592.5445582
592.4649417
592.3886401
592.3211692
592.2618687
592.2097395
592.1648522
592.125532
592.0922779
592.0599203
592.0067314
591.9108301
591.7476371
591.4769161
591.0456263
590.4052733
589.5432375
588.5118141
587.4036496
586.434329
585.6894219
584.9755059
584.1065872
582.7906564
580.8256803
577.8858314
573.7016108
570.3028426
565.4203888
557.8301757
547.0341863
532.0216662
511.5331055
484.465768
449.7141954
406.1044083
352.911426
289.8807989
219.4966639
137.2066446
62.20368838
593.524138
593.3895831
593.3096544
593.2124879
593.1393167
593.0942798
593.057015
593.0217259
592.9775769
592.9375756
592.8942358
592.8601772
592.8420651
592.8404425
592.8557497
592.8899827
592.9432163
593.0202243
593.1155563
593.2076026
593.2777216
593.287602
593.1827372
592.8868098
592.3196684
591.4198252
590.2073311
588.9413357
588.2796169
588.1681569
588.2541258
588.159765
587.6897864
586.7165167
584.0591804
578.1051332
575.0934145
571.9174721
565.7087701
556.0875515
541.9257727
521.9421519
495.1787797
460.4041075
416.3993378
362.3118146
297.9048266
225.7837806
141.2858059
64.13398204
593.774703
593.6425551
593.5675169
593.4782169
593.4161605
593.384373
593.3638444
593.348651
593.3288312
593.3174155
593.3073402
593.3117382
593.338377
593.3889858
593.46533
593.5711492
593.7086629
593.8858619
594.0990825
594.3331691
594.5761036
594.7816049
594.9002339
594.8548504
594.5284903
593.7969874
592.5880207
591.0822453
590.2455398
590.1337346
590.3658627
590.4952161
590.2444511
589.3547176
587.4578458
584.2601909
582.2394677
579.3100698
573.8246352
564.9068065
551.2951415
531.7857936
505.1885567
470.2608654
425.8177699
370.8469649
305.1645484
231.3487762
144.8168714
65.74992175
594.0241166
593.894334
593.8240018
593.7419683
593.6897343
593.670342
593.665198
593.6682052
593.6702085
593.6841267
593.7040258
593.7425426
593.8083568
593.9043957
594.0334987
594.2008829
594.4098905
594.6725198
594.9807476
595.3274406
595.6923112
596.034627
596.2781112
596.3534811
596.1356428
595.3515358
593.705198
591.7234388
591.8484918
593.2242239
593.6957587
593.7658176
593.6469764
593.12419
591.9021625
589.4823484
587.0709517
584.3753024
580.0804994
572.2518657
559.3974826
540.4476769
514.2034359
479.3899144
434.7544437
379.1841943
312.4313977
237.1077546
148.4793072
67.42017551
594.2690291
594.141211
594.0750619
593.999454
593.9557613
593.9471468
593.955144
593.9740019
593.9948305
594.0304377
594.0756026
594.1428114
594.2411717
594.3742757
594.5455937
594.7613624
595.0256851
595.3547517
595.7409486
596.1890146
596.6852786
597.2044677
597.6845856
598.0523011
598.2172502
597.6016188
595.9846711
592.7197017
593.2979445
593.9366735
595.2219142
596.0633951
596.2332151
595.9425734
595.1004653
593.4060145
591.8063331
589.7977956
586.1765628
579.0344132
566.7223454
548.2272935
522.1365626
487.4301658
442.6624746
386.6022652
318.942795
242.1991112
151.827485
69.00883011
594.5076562
594.3815705
594.3191939
594.2491342
594.2129026
594.2137407
594.2332639
594.265755
594.3022211
594.355958
594.4211196
594.5111401
594.6351056
594.7964545
594.9987421
595.24802
595.548628
595.9134734
596.3365664
596.8115722
597.3205171
597.8241133
598.2484636
598.5298284
598.5536784
598.0333614
596.6807953
595.0489402
595.5234996
597.2697478
598.1791053
598.7302871
599.0461489
599.2973306
598.7177132
597.161494
595.8170617
593.9762648
590.4464803
583.7267002
571.962419
554.023057
528.561016
494.2747705
449.6729328
393.45851
325.1493851
247.2266008
155.1872828
70.49504585
594.7381181
594.6134378
594.5541183
594.4885696
594.4584399
594.4669772
594.4957507
594.5392717
594.5879474
594.6555438
594.7357355
594.8425863
594.984788
595.1652067
595.3869817
595.6554644
595.9747626
596.3548829
596.795117
597.2831578
597.8101433
598.3340323
598.8091864
599.1651247
599.2910517
599.0740191
598.4765647
597.619937
597.5440165
598.2569591
599.2801047
600.5136508
600.8175233
601.8021263
601.0194767
598.8538978
598.861591
597.4386616
593.8908889
587.1848127
575.7119987
558.1638537
533.1279432
499.1493738
454.6957389
398.4400819
329.7795099
250.8911004
157.7268569
71.65396232
594.9589629
594.8354594
594.7788236
594.7167496
594.6918003
594.7065695
594.7427144
594.7948434
594.8527006
594.9302423
595.0213409
595.1396716
595.2933347
595.4846072
595.7159222
595.991594
596.3143688
596.6923232
597.1237819
597.5910897
598.080632
598.5589019
598.978861
599.2714347
599.3638411
599.2070553
598.8214849
598.4875061
598.8603416
599.9348681
601.11443
602.5775095
602.5101853
604.2707847
603.5633261
599.2161499
599.8126809
599.1110646
595.390089
588.5384091
577.2360816
560.0033314
535.4043448
501.8713757
457.7841441
401.7502672
332.9829215
253.5723269
159.6904441
72.51006208
595.1687659
595.0459249
594.9911323
594.9314967
594.9101484
594.9291502
594.9704244
595.028372
595.0921247
595.1756557
595.2731463
595.3975019
595.5561381
595.7506379
595.9825552
596.2548969
596.5694305
596.9306129
597.3382454
597.7751596
598.2252135
598.6709822
599.0799441
599.4074406
599.6190152
599.7013407
599.7201617
599.793512
600.1513965
600.8696983
601.6906093
602.6306576
602.8703173
603.5104912
603.4741832
601.2487586
600.7671023
599.0734432
594.9095631
587.6915501
576.2484243
559.0673187
534.6188721
501.3281162
457.5181502
401.8092958
333.2469145
253.9169505
159.9483068
72.62117771
595.3671644
595.2450625
595.1919425
595.1342979
595.1159632
595.1381812
595.1831156
595.2446943
595.3123171
595.399093
595.4993631
595.6253994
595.7839291
595.9757122
596.201434
596.4628714
596.7612419
597.0967635
597.4696348
597.867781
598.2755417
598.6760443
599.0472215
599.3600025
599.5882408
599.7218675
599.8205209
599.995448
600.3766977
601.0329413
601.8211874
602.56884
602.9894986
603.189317
602.6852033
601.104482
599.5786467
597.1056412
592.4924607
584.7557189
572.8203446
555.3354507
530.8044597
497.6150123
454.0796516
398.7221932
330.6568783
252.0230158
158.6854601
72.05339534
595.5520807
595.4298638
595.376948
595.3198025
595.3025998
595.3259059
595.3718622
595.4341277
595.5027927
595.5894087
595.6885045
595.8122155
595.9662708
596.1505308
596.3647045
596.609607
596.8854787
597.1907194
597.5231081
597.8765383
598.2368532
598.5902081
598.917788
599.2100753
599.4539558
599.6489803
599.8434037
600.0978624
600.455676
600.926546
601.4209227
601.8062746
601.9177332
601.6990102
600.9505749
599.4030154
597.1216039
593.6570096
588.1340667
579.5406151
566.7837695
548.6294588
523.64257
490.2173406
446.7099619
391.7373004
324.4565348
247.050442
155.3561128
70.51539564
595.7260281
595.6044118
595.5525018
595.4973213
595.4810842
595.5055063
595.5521212
595.6145022
595.6829497
595.7674821
595.8629915
595.9813323
596.1273493
596.3000484
596.4983389
596.7221633
596.9709617
597.2424737
597.5329923
597.8364294
598.1443276
598.4448123
598.7226817
598.9713705
599.1852181
599.3574715
599.5163398
599.6909838
599.8988905
600.1340218
600.3269091
600.3584862
600.0631685
599.3277482
597.9924806
595.812999
592.7143122
588.3116325
581.772306
572.1186671
558.3239927
539.2407558
513.5152336
479.6220234
436.0120353
381.4561475
315.2558103
239.7070474
150.4893721
68.26438801
595.884397
595.7614043
595.7072804
595.6516989
595.6327072
595.6549701
595.698862
595.7582446
595.8233382
595.9026376
595.9923406
596.1037733
596.240254
596.399724
596.5803652
596.7813878
597.0014291
597.2375834
597.4855135
597.7387477
597.9901091
598.2301254
598.4474775
598.6356725
598.7856251
598.893405
598.9726519
599.0331912
599.0718482
599.0478278
598.8853595
598.4796251
597.6812563
596.3766476
594.4321849
591.4794731
587.4262763
581.8528366
574.0011321
563.0216791
547.9329014
527.6466006
500.9201297
466.328524
422.4980588
368.3583928
303.4692117
230.2036699
144.1593148
65.34775029
596.0365474
595.9139856
595.8607336
595.802929
595.7871759
595.8113421
595.854454
595.9123466
595.9748269
596.0441114
596.126199
596.2289084
596.3528475
596.495607
596.6553296
596.8306084
597.0192683
597.2177163
597.4210822
597.6229626
597.8156873
597.989713
598.1362884
598.2461343
598.3074384
598.3161857
598.2652326
598.1501002
597.9468053
597.5942823
597.0185399
596.1153009
594.729376
592.7241264
589.936982
586.0674241
580.9793472
574.1613616
564.9660952
552.5675663
536.0502537
514.4208802
486.5595127
451.1884337
407.1176711
353.5045326
290.1656244
219.4803115
137.1351609
62.14151121
596.1658076
596.0407412
595.9825752
595.9204427
595.8976566
595.9153226
595.9559628
596.0076621
596.0614671
596.1219948
596.1987024
596.294873
596.4083987
596.5366579
596.6776094
596.8292698
596.9885306
597.151153
597.3115251
597.4628263
597.5966771
597.7037074
597.7725222
597.7924982
597.7492581
597.6315265
597.4203423
597.0960224
596.6192162
595.9296303
594.9353751
593.5253237
591.5394422
588.8227717
585.1789673
580.3818712
574.1425368
566.014296
555.3865085
541.48783
523.4725956
500.4284715
471.3671047
435.2035996
390.9301079
337.982113
276.3422567
208.1521645
129.8143676
58.8237596
596.2952878
596.1718816
596.1153988
596.0583822
596.0395761
596.0624817
596.1035967
596.1495603
596.1929896
596.2442021
596.3097198
596.3931376
596.4909924
596.6001834
596.7185942
596.8435629
596.9713026
597.096574
597.2131183
597.3131011
597.3874033
597.4248883
597.4127577
597.3365216
597.1790797
596.920186
596.5328919
595.9825723
595.2207974
594.1767829
592.7505621
590.8158622
588.206864
584.7541523
580.2536487
574.4590618
567.0712235
557.6373023
545.5872597
530.2186795
510.7456249
486.3393322
456.1415611
419.2640156
374.9002076
322.7383774
262.8916312
197.0925265
122.7076338
55.62737421
596.4015617
596.2726111
596.2075879
596.140169
596.1113867
596.1247036
596.1503632
596.1730866
596.2117375
596.2638321
596.3293179
596.4098029
596.499972
596.5977696
596.7008053
596.8058678
596.9082282
597.0021057
597.0802368
597.134112
597.1531928
597.1251163
597.0343002
596.8640561
596.5911829
596.1896176
595.6249164
594.8516552
593.8093652
592.4174104
590.5751982
588.1357059
584.9331209
580.783674
575.4695103
568.7431553
560.2384194
549.583435
536.2143448
519.4714077
498.6450992
472.9933038
441.7769916
404.2885656
359.9369914
308.6761882
250.6075662
186.9744131
116.2163758
52.71282122
596.5154084
596.3903291
596.3300474
596.2711329
596.2525163
596.2705832
596.285785
596.3086426
596.3439093
596.385503
596.436447
596.4968649
596.5687006
596.6460449
596.7274534
596.8082216
596.8825614
596.9437987
596.983959
596.9930896
596.9594741
596.8689424
596.7038519
596.4431154
596.060452
595.5225349
594.7891609
593.8053661
592.5029444
590.7938003
588.5671272
585.6689151
581.9181058
577.1262176
571.0535339
563.4375294
553.952003
542.1913446
527.639323
509.6806895
487.6671754
460.9473766
428.8855871
390.9196602
346.6382238
296.1031305
239.7051917
178.1510509
110.5359369
50.15258829
596.603389
596.4653865
596.3848084
596.311727
596.2778851
596.2651773
596.2605396
596.2803293
596.3126651
596.3528753
596.404256
596.4667558
596.5371517
596.6129285
596.6869925
596.7558844
596.8132317
596.852324
596.8644741
596.8390176
596.7633099
596.621343
596.3933519
596.0550923
595.5768782
594.9206176
594.039043
592.8732654
591.3427043
589.3609003
586.7922572
583.4919735
579.2795264
573.9225751
567.2115404
558.8438479
548.5713631
535.8748733
520.3179236
501.3627614
478.392307
450.8262895
418.1148459
379.8206923
335.643635
285.6227376
230.3696503
170.8427007
105.8219077
47.99989825
596.7198819
596.5856478
596.520001
596.4673782
596.4275045
596.4052629
596.4051311
596.4156392
596.4336399
596.4619474
596.5011888
596.5490864
596.6030839
596.6598806
596.7151802
596.7631677
596.798833
596.8142982
596.7998798
596.7428698
596.6307908
596.4446102
596.1650049
595.7627264
595.207172
594.4529692
593.4538578
592.1365459
590.42934
588.2200031
585.3907819
581.7704111
577.1918111
571.4106411
564.2121586
555.2750811
544.4335587
531.0026633
514.6531475
494.9393114
471.2434392
443.0587999
409.8672237
371.3690292
327.303893
277.7906859
223.1032991
164.5160986
102.1703245
46.31002336
596.8056807
596.5884901
596.4935254
596.4246494
596.368228
596.3362202
596.3294788
596.3411812
596.3661027
596.402143
596.4476647
596.5006355
596.5581566
596.6167106
596.6715201
596.7171036
596.7468048
596.752582
596.7250369
596.6519059
596.5179695
596.3051228
595.9894681
595.5443786
594.9331547
594.1132112
593.0275821
591.6096581
589.7740755
587.4105236
584.3906819
580.5467307
575.6997822
569.6169458
562.0679281
552.7422481
541.4842887
527.5534449
510.6804818
490.4323857
466.2606291
437.656339
404.1805778
365.5418289
321.5854981
272.3985217
218.2913189
160.1353598
99.93730026
44.60818402
596.9954372
596.6919446
596.6399965
596.601655
596.5206144
596.4603869
596.4394345
596.4392766
596.4507294
596.473815
596.5079426
596.5503985
596.5978817
596.6467757
596.6921094
596.7282268
596.7485188
596.7445554
596.7062317
596.6209999
596.4731843
596.2441607
595.9104678
595.443108
594.8062059
593.9522922
592.8259266
591.3579917
589.4608922
587.0184123
583.9073312
579.9548482
574.9750371
568.7304606
561.0142309
551.5195879
539.9559506
525.8467238
508.7551871
488.25232
463.8435581
435.0409131
401.4260672
362.7354391
318.8562999
269.9317578
216.3562101
159.1438351
99.97942132
45.6228391
591.4459968
591.1622462
590.9674594
590.8116819
590.5837663
590.3279378
590.056747
589.7542456
589.4090474
589.0179314
588.5772317
588.0815294
587.5236583
586.8957895
586.1890724
585.3936083
584.4969586
583.4862968
582.3451137
581.0569154
579.5992359
577.9506075
576.0810455
573.9599628
571.5481687
568.798268
565.6591205
562.0620487
557.9344796
553.1719865
547.669436
541.272101
533.8394358
525.1464477
515.1298317
503.4752729
489.9326863
474.382839
456.295479
435.3644189
411.2359099
383.597569
352.2008688
316.8405659
277.4245466
234.0537257
187.078644
137.7977632
85.79716508
38.3722789
591.3101697
591.0971709
590.8869978
590.6525586
590.4598729
590.239602
589.9803314
589.6890214
589.3598066
588.9848163
588.5592833
588.0784944
587.5361797
586.9245704
586.2344816
585.4558142
584.5759665
583.5829566
582.4610471
581.1934613
579.7587583
578.1331488
576.2906593
574.199498
571.8202974
569.1112755
566.0179335
562.4763264
558.4121132
553.7274306
548.3073543
542.0171659
534.6988147
526.1750499
516.2624522
504.7285345
491.3676877
475.9453657
458.0452956
437.2832591
413.3105289
385.8049239
354.4942793
319.1374371
279.6146226
235.9557112
188.4112955
137.1625585
87.74827235
38.14323756
591.310019
591.1760964
591.0136441
590.7991284
590.5977687
590.3912504
590.1504517
589.86455
589.5325144
589.155085
588.7300914
588.2522546
587.714369
587.1101919
586.4290486
585.6632747
584.7999056
583.8271318
582.7303338
581.4892249
580.0861338
578.5001144
576.7008596
574.6638198
572.3470648
569.7111599
566.7022349
563.2608934
559.3133695
554.7672671
549.5056543
543.4110654
536.3087206
528.0173243
518.3515681
507.0886229
494.0341524
478.8962625
461.3122984
440.8561485
417.170549
389.9148909
358.7807289
323.4526156
283.7795231
239.7717803
191.7434706
140.0701543
90.87362825
39.95229058
591.3277274
591.1984455
591.0416657
590.815598
590.5632785
590.3558123
590.1410051
589.8779664
589.5665236
589.2106655
588.8104978
588.3607579
587.8539093
587.2858244
586.643765
585.9164986
585.0949715
584.1667985
583.1183943
581.9327553
580.5914369
579.07323
577.3540138
575.4035234
573.1891866
570.6700724
567.7996272
564.5195524
560.7623697
556.4397448
551.4460545
545.6524041
538.9216645
531.0551378
521.8490214
511.0730745
498.5121197
483.9141564
466.8878038
447.0016335
423.853977
397.0652165
366.232639
331.0045286
291.1441031
246.6469592
198.0772617
143.4372449
92.89907944
41.33364136
591.4094955
591.3014119
591.170403
590.984964
590.7695509
590.5451198
590.346463
590.109119
589.8155954
589.4713417
589.0844897
588.6484943
588.1631088
587.6138699
586.9986223
586.307044
585.5277831
584.6481619
583.65528
582.5336963
581.265729
579.8304205
578.204888
576.36157
574.2711576
571.8965151
569.1955981
566.116256
562.5942347
558.549104
553.8765679
548.4581896
542.1451605
534.7525912
526.0636012
515.8504019
503.9506161
490.0603018
473.7568077
454.5776908
432.1056619
405.8840431
375.452379
340.3703945
300.2995906
255.1150272
205.7861933
148.6540854
95.49418819
42.85807839
591.5043921
591.3962426
591.2667673
591.0864797
590.875536
590.6504307
590.4232436
590.2086536
589.9498837
589.6323619
589.2732863
588.877854
588.4331318
587.9312648
587.3654585
586.7272606
586.0072035
585.1939511
584.2752505
583.2366408
582.0610042
580.7288836
579.2190527
577.5067067
575.5668198
573.365744
570.8674012
568.02665
564.7834491
561.0671243
556.7711266
551.8020214
545.9873296
539.1654742
531.1025922
521.5893594
510.4473967
497.3783905
481.9411157
463.6229736
441.9469324
416.4728305
386.5761087
351.7175257
311.4367337
265.3692353
214.7019045
155.2582183
99.94757414
44.92104197
591.6451326
591.5449848
591.429671
591.2706407
591.0891698
590.8935747
590.683211
590.4613878
590.2237429
589.9430399
589.612865
589.2433869
588.8318786
588.3704436
587.8520364
587.2692008
586.6130056
585.8721465
585.0351013
584.0880893
583.0154543
581.7988726
580.4185435
578.8525278
577.0788273
575.0702027
572.7959426
570.2197225
567.2904323
563.9412742
560.0702698
555.6073018
550.366403
544.1839744
536.8204468
528.1106562
517.8145186
505.6685742
491.1993849
473.8423076
453.0786449
428.459586
399.2008662
364.6303815
324.1530583
277.2814229
225.0006633
163.0186558
105.1790873
47.34508754
591.7988812
591.6992643
591.5858494
591.4313663
591.2565911
591.0753146
590.8790955
590.6692447
590.4417431
590.1934752
589.9076813
589.5827293
589.2182165
588.8097392
588.3513072
587.8363427
587.2566007
586.6021118
585.8609497
585.0203077
584.065131
582.9781463
581.7411164
580.3341085
578.7380973
576.9335775
574.8973489
572.6023817
570.0070859
567.0473781
563.6410613
559.7202858
555.1039074
549.5853703
542.9287189
535.0616714
525.6717238
514.5388637
501.1416355
484.8498522
465.1027585
441.3894318
412.8309535
378.6043726
337.9384135
290.2440731
236.1867938
171.5076908
110.899335
49.965162
591.9850987
591.8908936
591.7868932
591.6469477
591.4916996
591.3275291
591.1593204
590.975634
590.7666414
590.5404791
590.2924522
590.0107658
589.6923972
589.336311
588.9388505
588.4940095
587.9942973
587.4307533
586.7927372
586.0671097
585.2385351
584.2902354
583.2045035
581.9628829
580.5485893
578.9485079
577.1508379
575.1422546
572.8872465
570.333467
567.4123275
564.0606616
560.1259301
555.3919878
549.6438934
542.6237606
534.1485365
524.0162276
511.681228
496.4714441
477.7566427
454.9690583
427.106999
393.2214054
352.3633004
303.7979067
247.866616
180.5310315
117.0524663
52.8265464
592.1834827
592.090462
591.9893486
591.856297
591.7068881
591.5622639
591.4138726
591.2543788
591.0726522
590.8685492
590.6608265
590.4283523
590.1634523
589.867142
589.5383038
589.1720207
588.7615277
588.298644
587.7732674
587.1726011
586.4812793
585.6817167
584.7528139
583.6772774
582.4398453
581.0374588
579.46878
577.7343282
575.8217535
573.6918027
571.2730427
568.4848592
565.1460464
561.0490717
556.0059969
549.7882674
542.4436197
533.5500035
522.4107922
508.3101903
490.6308719
468.7204443
441.4790099
407.8588802
366.7789799
317.305446
259.4184277
189.4739566
123.1082655
55.61001574
592.4048576
592.3162489
592.2245755
592.10183
591.9681555
591.8404583
591.7131992
591.5788893
591.4257815
591.253586
591.0845378
590.8980595
590.6860411
590.4504782
590.1918705
589.9066709
589.5892231
589.2323888
588.826734
588.3590093
587.8112901
587.1658111
586.3998005
585.4953137
584.4310059
583.2028567
581.8264757
580.3203339
578.7087434
576.986183
575.0739126
572.8849883
570.2638683
566.980898
562.7708012
557.4260794
550.998348
543.0806972
533.0599438
520.0494619
503.3640753
482.2234852
455.513345
422.1060106
380.8167221
330.4896569
270.7855682
198.3216808
129.1477756
58.43666701
592.6312139
592.5454413
592.45853
592.3456761
592.2247423
592.1130555
592.005623
591.895419
591.7707088
591.6314393
591.5017124
591.3621595
591.2050967
591.033099
590.8479583
590.6477252
590.4281813
590.1835971
589.9051878
589.5777977
589.1835975
588.702169
588.1038699
587.3656194
586.462483
585.3840224
584.1669804
582.871962
581.5588871
580.2476823
578.8118027
577.0922389
574.8715767
571.9931695
568.2224912
563.5085738
558.6749767
552.4031923
543.5786545
531.5699497
515.7956629
495.3322427
469.0349231
435.6574692
393.9432258
342.6269897
281.2430966
206.3370816
134.571969
60.94464793
592.8736559
592.7908952
592.709711
592.6071166
592.4993316
592.4048469
592.3176572
592.2321314
592.1364819
592.03084
591.9405034
591.8472908
591.7443471
591.6353278
591.5235431
591.4088047
591.2888311
591.1597358
591.0130144
590.8334151
590.6030797
590.2965882
589.8772394
589.2993073
588.5248676
587.5298639
586.3374343
585.1067764
584.0144271
583.1387381
582.317882
581.319997
579.9406119
577.8753096
574.5736812
570.4739343
565.6389902
560.5861589
553.2971518
542.523627
527.6892184
507.878865
481.9333561
448.5578148
406.3925204
354.1130224
291.110212
213.8513681
139.6025402
63.24932228
593.1189789
593.038967
592.9630893
592.8695435
592.7738496
592.6945124
592.6267193
592.5644047
592.4961952
592.4229835
592.3708068
592.3223651
592.2719648
592.2244738
592.1847153
592.1544285
592.1335973
592.1206522
592.1070313
592.0807762
592.0240924
591.9061742
591.6811138
591.2911753
590.6678818
589.7849622
588.6406528
587.4244789
586.4888385
585.9275468
585.4658969
584.8056262
583.7748995
582.0278295
577.5756416
573.1912697
574.9790195
569.5064857
562.3272152
552.6690687
538.7932257
519.5737877
493.955616
460.4345286
417.712586
364.3267573
299.7960719
220.4157742
143.968522
65.25247859
593.3699439
593.2927417