/*--------------------------------*- C++ -*----------------------------------*\
| =========                 |                                                 |
| \\      /  F ield         | OpenFOAM: The Open Source CFD Toolbox           |
|  \\    /   O peration     | Version:  2.2.1                                 |
|   \\  /    A nd           | Web:      www.OpenFOAM.org                      |
|    \\/     M anipulation  |                                                 |
\*---------------------------------------------------------------------------*/
FoamFile
{
    version     2.0;
    format      ascii;
    class       surfaceScalarField;
    location    "7";
    object      phi;
}
// * * * * * * * * * * * * * * * * * * * * * * * * * * * * * * * * * * * * * //

dimensions      [0 3 -1 0 0 0 0];

internalField   nonuniform List<scalar> 
265716
(
38.35029225
-1.274428744
-0.8309835944
-41.8829891
2.907670645
2.730438745
39.77419616
-0.8982341842
-0.150231332
-0.07222241131
-0.3032157964
40.03363109
-0.1413054134
0.1181739956
-0.07986877598
-0.1564345558
40.09216231
0.01848195915
0.06103754219
-0.05815970285
-0.07989081244
40.11938665
0.03337117875
0.04059164186
-0.04762685975
-0.05356008891
40.13673546
0.03314481389
0.03663081065
-0.04197982306
-0.04514430685
40.15084473
0.03194102131
0.0342307966
-0.03864698669
-0.04163380308
40.16330833
0.03063411074
0.03227610952
-0.0360529686
-0.03932047507
40.17473057
0.02911971396
0.03048537615
-0.03366277219
-0.03736424385
40.18540032
0.02751412047
0.02892738009
-0.03149056203
-0.03562026356
40.19549335
0.02588142085
0.02764596091
-0.02953451525
-0.03408555872
40.2051777
0.02421294285
0.02667209801
-0.0277870142
-0.03278187491
40.21460868
0.0224545594
0.02597718038
-0.02620669942
-0.03165564353
40.22379821
0.02058246736
0.02550728096
-0.02475717661
-0.03052152434
40.23279373
0.01855305509
0.0253232261
-0.02338385643
-0.02948753962
40.24162711
0.0163968365
0.02548148363
-0.02211937527
-0.02859166557
40.25028399
0.01413962956
0.02596738873
-0.02089128476
-0.02787218417
40.25853804
0.01170052172
0.02685382073
-0.01961833231
-0.02718932177
40.26641821
0.009098901061
0.02805460045
-0.01830941661
-0.02672376024
40.27352269
0.006421664873
0.02983194703
-0.01701777518
-0.02633943349
40.2797706
0.003727582269
0.03184847114
-0.01569531404
-0.0261280816
40.28449725
0.001078136963
0.03480694527
-0.0145738124
-0.02603692966
40.28714429
-0.001499401077
0.03853946119
-0.0135299146
-0.02615668442
40.28697726
-0.003955332952
0.04301557654
-0.01245907585
-0.02643320914
40.28258735
-0.006458291721
0.04930090229
-0.01152461966
-0.02692787169
40.27381216
-0.008747139765
0.05587313657
-0.01054299814
-0.02780719815
40.25983759
-0.0107442507
0.06293241975
-0.01002523431
-0.02818871388
40.23967217
-0.01298572164
0.0716587649
-0.008839120093
-0.02966837812
40.2144044
-0.01485298111
0.07993887348
-0.009736827224
-0.03008163366
40.18659524
-0.01635474623
0.08724687596
-0.01112162189
-0.03196024001
40.16361106
-0.01469413961
0.09838212546
-0.02559755465
-0.0351061457
40.16022088
-0.006584320266
0.1122129504
-0.06009909118
-0.04213937428
40.19479591
0.005887762833
0.1215401103
-0.1104695473
-0.05153584789
40.24493346
0.00393235882
0.1313170121
-0.1306650453
-0.05472296431
40.24547487
-0.04122679544
0.1009225411
-0.03663655426
-0.02360173767
40.13457055
-0.0634318019
0.07236961666
0.03379993099
0.06816580868
39.74430127
-0.1059897326
0.07389034383
0.1380786363
0.2842892084
39.44950772
-0.1457198678
0.07236532276
0.1939392287
0.1742075374
39.30493118
-0.1420365934
0.1053188539
0.1299455693
0.05134647267
39.23661035
-0.141487578
0.132949997
0.08784520213
-0.01098985331
39.19835302
-0.1408595743
0.1598062057
0.05662361386
-0.03731613043
39.17117573
-0.1415689452
0.1813439226
0.03637925551
-0.04897995669
39.14638231
-0.145142781
0.1975036273
0.02635664837
-0.05392693484
39.12120461
-0.1491794919
0.2052408347
0.02313282856
-0.05401952983
39.09851823
-0.15661189
0.2076952045
0.02428329114
-0.05268383697
39.075768
-0.1625972228
0.203664952
0.02905689707
-0.04737849771
39.0705738
-0.1576323691
0.1841852707
0.0285019522
-0.04986327014
38.895483
-0.007961084648
0.1146021132
0.07293233367
-0.00448258786
37.95402527
0.7413938452
0.3258420634
-0.03011998068
-0.0956593493
1.098830952
0.9098005077
39.8594699
-1.951179725
-1.962895385
44.83720731
-0.2640608957
-2.108918515
-47.99020053
4.251544074
43.17188788
0.2840767089
1.567642111
-1.084633429
43.06635188
0.02787620225
0.09686401193
-0.16050946
43.08243677
0.03482599243
0.06611271609
-0.09854145296
43.10480842
0.04014851071
0.05227596913
-0.08142476562
43.12078363
0.04233837124
0.05278017424
-0.07794870518
43.13387013
0.04283427565
0.05386673698
-0.07784626237
43.14558144
0.04227491267
0.05491120007
-0.07826303732
43.15640894
0.04097658521
0.05582330597
-0.07850743745
43.16657167
0.03921797986
0.05652607216
-0.07839235283
43.17622735
0.03711834328
0.05711153158
-0.07800388293
43.18554572
0.03466684497
0.05765826091
-0.0774301815
43.19471731
0.03180539638
0.0581973364
-0.07671949318
43.20392324
0.02851159599
0.05875403772
-0.07588868514
43.21330624
0.02478940056
0.05937290021
-0.07499196623
43.22290572
0.02069306445
0.06016987555
-0.07406513859
43.23287422
0.01628653943
0.06103329744
-0.07314840893
43.24300762
0.01160229317
0.0621380221
-0.07217272662
43.25315854
0.006733425777
0.06353275897
-0.07131789435
43.26313405
0.001797966808
0.06504603852
-0.07039731024
43.27253163
-0.003316574893
0.06734258145
-0.0696956662
43.28100536
-0.008276536783
0.06997843691
-0.06909691353
43.28772727
-0.01303181651
0.07353066079
-0.06871988828
43.29159606
-0.01739867769
0.07813981604
-0.06856477409
43.29208315
-0.02141943111
0.083052637
-0.06857857192
43.28749172
-0.02510004994
0.08997850906
-0.06903393329
43.27809715
-0.02837500072
0.09605020164
-0.06902525263
43.26195089
-0.03168515639
0.1052882536
-0.07044268584
43.24110138
-0.03534923131
0.1118627817
-0.07051741704
43.21468451
-0.0402823397
0.1223991415
-0.07205429851
43.18947713
-0.04675329279
0.1303728573
-0.07310657901
43.16995499
-0.05645247685
0.143739617
-0.07434958342
43.16771254
-0.06785699904
0.1521384402
-0.07615291195
43.17962616
-0.08472374391
0.1496216842
-0.07288018777
43.18375895
-0.1007245312
0.1095339895
-0.05417028445
43.13159873
-0.1174013063
0.06909139936
0.0370369289
41.98026308
-0.1365047991
0.06271518993
1.119134442
41.4622943
-0.1483884555
0.0616550627
0.4589814122
41.27050805
-0.1634944721
0.09471008986
0.1185321548
41.21007455
-0.1791796876
0.1184602598
-0.02033643994
41.18719791
-0.1942497564
0.1408594486
-0.06459487215
41.17164324
-0.2056779762
0.158555013
-0.07889328978
41.155703
-0.2155134468
0.1709070322
-0.08459828122
41.13810984
-0.2233531626
0.1761858991
-0.08442107324
41.12142732
-0.2323403336
0.1749409782
-0.08253248883
41.10335697
-0.2409847286
0.1715071523
-0.07505187258
41.12212396
-0.2473005125
0.143890587
-0.0729922827
41.29495963
-0.2624425742
0.1043584803
-0.02271499171
44.14380495
-0.5625877936
-1.39759632
-0.1472685864
0.01092641766
2.281543256
46.87093316
-3.92076688
47.4321998
-0.009829255507
-2.452787732
-49.3256509
4.092007398
45.07195293
0.0312322796
4.156023732
-1.542932275
48.84488583
-0.1474129068
-3.822215672
0.2245720975
48.81241019
-0.02617531481
-0.05185994944
0.1453370988
48.78450713
0.02750915518
-0.003524903465
0.04406755774
48.78267176
0.03456400168
0.02966034332
-0.02005036388
48.79369427
0.03480721721
0.04656924169
-0.04956442377
48.80868498
0.03354884843
0.05390159818
-0.06016597427
48.8240718
0.03109088803
0.056928887
-0.06242971084
48.83913674
0.02792451832
0.0584187509
-0.06218992802
48.85381816
0.02428535835
0.05951620359
-0.0613642972
48.86821332
0.02015359573
0.06057299534
-0.06045456113
48.8825208
0.01536547867
0.06172544042
-0.05959260652
48.89687784
0.009837287501
0.06312875056
-0.05881108707
48.9115319
0.003506874209
0.06474241307
-0.05811351473
48.92641628
-0.003295509212
0.06663435542
-0.05752974346
48.94165301
-0.01047571617
0.06861201258
-0.05708602003
48.95719317
-0.01836520677
0.07118116543
-0.05675337335
48.97310849
-0.02672612498
0.0740215271
-0.05647680193
48.98890875
-0.03535756254
0.07761749227
-0.05626171952
49.00419225
-0.04403063856
0.08170612551
-0.05627501055
49.01849074
-0.05249712013
0.08641253148
-0.05648993089
49.03099624
-0.0606989323
0.09200404869
-0.05684193882
49.04060536
-0.06803142827
0.09841693931
-0.05739295379
49.04632546
-0.07469349792
0.1057422718
-0.05818805898
49.04675477
-0.08036152561
0.1140560974
-0.05922389157
49.04103208
-0.08575646722
0.1235433062
-0.06043927689
49.02831001
-0.09023007751
0.1330804291
-0.0618137088
49.0086815
-0.09541166757
0.1430742545
-0.0633834716
48.98321343
-0.1020587529
0.1519347395
-0.06469040457
48.95511737
-0.1112472864
0.1586406566
-0.06605087285
48.92886289
-0.1241739661
0.1601008924
-0.06612577332
48.91257304
-0.1405885899
0.1549602803
-0.06594024055
48.91114355
-0.1628226937
0.1398076843
-0.06028071537
48.92543999
-0.1864833142
0.1161631309
-0.04470297735
48.92600506
-0.2164706071
0.056013773
0.04248860377
47.92493202
-0.2396709094
-0.05276018144
1.156997895
47.51513112
-0.2619277511
0.04127496278
0.4820636123
47.37734176
-0.2905441863
0.1284273014
0.136409621
47.34318995
-0.3195482743
0.1777260056
-0.003208058246
47.33503865
-0.3442140668
0.2063288329
-0.04821574998
47.32914171
-0.3646401077
0.2277659787
-0.06290968044
47.31989537
-0.3814892198
0.2445033487
-0.06928397849
47.30863373
-0.3959908025
0.2544989594
-0.07060274053
47.29872135
-0.4103054889
0.2588636045
-0.07098932492
47.2761325
-0.4186373314
0.2649667882
-0.06472915219
47.22643695
-0.3746379602
0.2497980332
-0.07276925735
42.42292103
-0.2205044235
4.777541935
-0.01596814587
46.41247251
-0.3916549342
-4.038283604
-0.1222015377
-0.3493491445
2.611878822
48.18063141
-4.019762388
47.85962983
0.004184543039
-2.521702601
-49.37251646
4.020575642
45.07465595
0.009541402268
4.226821065
-1.420156148
51.96635314
0.009054869251
-7.809908303
0.7617435397
52.37859123
0.01469860741
-0.965519592
0.5124077594
52.26477832
0.02613672245
-0.1029357153
0.2181212482
52.23911591
0.0303106485
-0.005630828434
0.03554680958
52.2425979
0.02909706307
0.0379664302
-0.03573805003
52.25585401
0.02686663043
0.05334808209
-0.05992174311
52.27103002
0.02371238016
0.05977907273
-0.06757634098
52.28566607
0.01962911239
0.06278086863
-0.06912126427
52.29975714
0.01473505565
0.0644687233
-0.06900922993
52.31359259
0.009111469389
0.06580763003
-0.06860066299
52.32727819
0.002723896331
0.06706665892
-0.0681103935
52.34134893
-0.005006925641
0.06824641062
-0.06747261319
52.35596464
-0.01377425994
0.069535353
-0.06686962114
52.37128296
-0.02331484998
0.07104610664
-0.06634475211
52.38751996
-0.03369505647
0.07281056666
-0.06582791975
52.40458669
-0.04486568196
0.07479134131
-0.06535727038
52.42241212
-0.05664594178
0.07714691122
-0.06505222445
52.44075347
-0.06879039079
0.08000311947
-0.06491130069
52.45909426
-0.08098980502
0.08352470967
-0.06490603841
52.47681473
-0.0927470305
0.08762408637
-0.06509431314
52.49300589
-0.1040243339
0.09253317828
-0.06539874152
52.50648202
-0.1139296974
0.09840746532
-0.06598515992
52.51612306
-0.1228758682
0.1053780759
-0.06683679907
52.52025955
-0.129856604
0.113304583
-0.06794612956
52.51766718
-0.1362265054
0.1223885317
-0.06932649601
52.50730897
-0.1409574246
0.1317946461
-0.07070947673
52.48916313
-0.1460593569
0.1411319918
-0.07233909408
52.46397216
-0.1526847624
0.1494694028
-0.07365253771
52.43542684
-0.1617080465
0.1534090713
-0.07440388137
52.40572173
-0.1715111119
0.1509181723
-0.07387709022
52.38835938
-0.1910854762
0.1393241992
-0.07146655183
52.38431877
-0.2122737864
0.1158025055
-0.0623123826
52.38870527
-0.2366898898
0.07529284435
-0.02947440615
52.3594112
-0.2664014387
-0.005216737682
0.08444005445
52.20897955
-0.2922879521
-0.1705926023
0.3736395251
52.12574307
-0.320761209
-0.06993959849
0.2120079148
52.10288409
-0.3542520792
0.03012123568
0.0564432354
52.10773581
-0.3895788005
0.0831714448
-0.01799476887
52.11757582
-0.4212340762
0.1114911893
-0.04431403201
52.12045379
-0.4437037518
0.1295876908
-0.0534045564
52.11754465
-0.4625182959
0.1414618628
-0.05752653178
52.11201644
-0.4803682303
0.1481121228
-0.05820942745
52.10558017
-0.4962473629
0.1506178316
-0.05824269557
52.10135351
-0.5105934674
0.1474997468
-0.05132008388
51.36342645
-0.5133293416
0.9353956119
-0.05878112272
42.41611646
-0.4718999856
9.201179403
-0.002477307299
46.72286133
-0.4322673816
-4.154484479
-0.1116493828
-0.4165049799
2.639867029
48.1836459
-4.033495992
47.90798212
0.003372348116
-2.52352549
-49.38685624
4.003212043
45.0690359
0.006949756031
4.22954607
-1.388008043
51.98396762
0.01282439111
-8.007511458
1.088810411
53.06976278
0.01703991166
-1.823418881
0.7352825809
53.84502308
0.02099323349
-1.092715198
0.3225985768
53.81383185
0.0230567706
-0.03453514355
0.07298046493
53.81669695
0.02165245211
0.02923277408
-0.02465305504
53.82941994
0.01847369132
0.04990549948
-0.0542353198
53.8455541
0.01428693872
0.05673819248
-0.06344665778
53.86187485
0.009261501427
0.05918431229
-0.06513718463
53.87803912
0.003165225076
0.06012618693
-0.06472034199
53.8941617
-0.003700817571
0.06082928702
-0.06413927275
53.91034614
-0.01150627081
0.06153728373
-0.06349123314
53.92661503
-0.02078078357
0.06237743551
-0.06287211895
53.94315212
-0.03141728497
0.06335936274
-0.06225308031
53.96030089
-0.04336953388
0.06456730335
-0.06166102947
53.97824565
-0.05658938119
0.06609096829
-0.06114107839
53.99714864
-0.07098183188
0.06793868618
-0.0607251937
54.01705035
-0.08634270788
0.0702044665
-0.06040911477
54.03783383
-0.1023501241
0.07298581084
-0.06020923802
54.05913006
-0.1185219911
0.07636550172
-0.06012926709
54.08040229
-0.1342504874
0.08051536426
-0.06028386132
54.10050633
-0.1489975298
0.08548677549
-0.06061746165
54.11818366
-0.1618717475
0.09144299672
-0.0611782215
54.13189437
-0.1731695124
0.09872145079
-0.06213866923
54.14017311
-0.1815890246
0.1067843143
-0.06333091166
54.14065873
-0.1882284138
0.1163846131
-0.06486879638
54.13271558
-0.1926353632
0.1256930755
-0.06607263663
54.11543818
-0.1960697207
0.1352664517
-0.06797883878
54.09106837
-0.2006346399
0.1414180142
-0.06909912448
54.06234039
-0.2080415584
0.1441828085
-0.06912288443
54.03858061
-0.2189223964
0.1393343292
-0.06816491191
54.02128244
-0.232656615
0.1241883492
-0.06532107255
54.01974776
-0.2502070332
0.09702888191
-0.0575628069
54.03530777
-0.2717593423
0.05796664195
-0.03845900763
54.05106015
-0.2980005477
0.002361607492
0.0134823879
54.05149448
-0.3252871694
-0.0618110557
0.09437384936
54.06144403
-0.3560637541
-0.03371709112
0.0590666222
54.08083738
-0.3905953176
0.008723746522
0.00822384881
54.10358182
-0.4275050016
0.03612684784
-0.02094954452
54.11762963
-0.4598530687
0.05768922711
-0.03312128326
54.12829588
-0.4914965479
0.0758506235
-0.03872804606
54.13196645
-0.514793146
0.0907271273
-0.04212709509
54.13131591
-0.5360688649
0.09930652624
-0.04295955529
54.13439109
-0.5613807086
0.1062836911
-0.04423068018
53.17898224
-0.5680949169
1.049213774
-0.03630710433
51.59985803
-0.5643077754
1.672539548
-0.04244073681
42.43488327
-0.5145441977
9.192072
0.01554381167
46.75283289
-0.4595581937
-4.194572279
-0.09608813111
-0.4416577658
2.595663364
48.219631
-4.0373089
47.91551778
0.001988228694
-2.523561465
-49.39009046
3.99951852
45.07024223
0.004197268126
4.228258312
-1.380230085
51.92438144
0.008094062522
-8.085485102
1.236076406
52.99657436
0.01069595633
-1.898900905
0.8330521107
54.69553528
0.01293502939
-2.057182547
0.3662800196
55.09284297
0.01432747104
-0.4745073932
0.0859292058
55.0994312
0.01405042757
0.02316259031
-0.02214857051
55.11201435
0.01087147486
0.04877364177
-0.05375432472
55.12715847
0.006034642229
0.05692380183
-0.06381534425
55.14164839
0.000568299864
0.06011189665
-0.06590829927
55.15553422
-0.006736611864
0.06166928079
-0.06565293292
55.16920128
-0.01502198066
0.06272163453
-0.06506715629
55.18313457
-0.02467743717
0.06371106438
-0.0644727739
55.1974127
-0.03592549181
0.06471619265
-0.0638491863
55.21230661
-0.04887801941
0.06579814537
-0.06323088096
55.22810531
-0.06355736463
0.0670681236
-0.06267854506
55.24504394
-0.07994225859
0.06859599032
-0.06218131683
55.26334526
-0.09792343959
0.07040084735
-0.0617601456
55.28317942
-0.1172700706
0.07252022597
-0.06142664403
55.30454704
-0.1375892028
0.07508347291
-0.06121163089
55.32721537
-0.1582875367
0.07820527719
-0.06110768524
55.350663
-0.1785973687
0.0820713291
-0.06117174545
55.37386862
-0.1975557831
0.08686118971
-0.0615083473
55.39555234
-0.2143006368
0.09280438669
-0.06205914943
55.41321564
-0.2278653154
0.100076556
-0.06304419541
55.42537061
-0.2375973754
0.1080493401
-0.06419627413
55.42864705
-0.2439164674
0.1180032374
-0.06559212749
55.42234889
-0.2464766796
0.1274240157
-0.06728488364
55.50733359
-0.2478591024
0.03556070639
-0.06875676001
55.48282966
-0.2498650563
0.1436393167
-0.0699060475
55.23381965
-0.2514847058
0.3623764426
-0.06992536319
55.06428085
-0.2552957163
0.2740612919
-0.06815139812
55.0348168
-0.2627110507
0.1242970838
-0.0647810487
55.03254562
-0.2741058718
0.08462273522
-0.05845482251
55.04307543
-0.2890084011
0.05379255143
-0.04707646266
55.07826397
-0.3079852675
0.002519233783
-0.02772560377
55.12587703
-0.3297368081
-0.0405693171
-0.00259802322
55.1677809
-0.3557463476
-0.03667749584
-0.005547412165
55.19911581
-0.3861452998
-0.01948867999
-0.01630238183
55.22581138
-0.4218705733
-0.01068067817
-0.02165328036
55.38998014
-0.4552248344
-0.14445023
-0.02435189995
55.63126412
-0.4957325347
-0.2094887615
-0.0275650118
55.63842209
-0.5249060492
0.03374057065
-0.03079189843
55.54159782
-0.546545566
0.1389311503
-0.0316372362
55.11065283
-0.5745340144
0.4743926917
-0.03030098911
53.19422733
-0.5743896809
1.94267213
-0.01995698239
51.60687247
-0.5695965031
1.618596784
-0.02595726262
42.43639782
-0.520184613
9.143108346
0.03300328658
46.75653772
-0.4631288509
-4.235331389
-0.08123949202
-0.4443101876
2.55951237
48.23424574
-4.034568114
47.91564009
0.001403807585
-2.523345612
-49.39050658
3.998796814
45.06744648
0.002916909556
4.228268767
-1.37879462
51.89499926
0.005367226701
-8.108617602
1.283791873
52.9560518
0.006817311489
-1.920778554
0.8636048357
54.65746152
0.007510661982
-2.074885507
0.3789003461
55.48041728
0.007599465864
-0.9056230856
0.08939555212
55.87875597
0.006805350748
-0.3693765804
-0.02171677647
55.89146134
0.00370906035
0.04766908192
-0.05321176683
55.90627811
-0.001748271508
0.05601005511
-0.06304359195
55.92139497
-0.00823901418
0.05877406713
-0.06508327773
55.93577098
-0.01620818856
0.05985800979
-0.06476205858
55.94977045
-0.02555027388
0.06062907445
-0.06409982693
55.9636516
-0.03653490128
0.06138739983
-0.06341063229
55.97765631
-0.049429799
0.06217562258
-0.06267555294
55.99209707
-0.06443281145
0.06306174472
-0.06194721225
56.00735762
-0.08166016649
0.06412924245
-0.06128650624
56.02382335
-0.1011536095
0.06543138537
-0.06068529661
56.04185905
-0.1228495591
0.06704855806
-0.06015768879
56.06182462
-0.1465209655
0.06901388207
-0.05972813033
56.08391097
-0.1717062417
0.07144177617
-0.0594106611
56.10817415
-0.1976615107
0.07432843106
-0.05921722603
56.13422436
-0.2234068427
0.07791205015
-0.05915242652
56.16111486
-0.2474587733
0.08235095325
-0.05933821401
56.18775576
-0.2690344283
0.08792250881
-0.05982954393
56.2112642
-0.2856229594
0.09491840134
-0.06066931376
56.22941777
-0.2970197036
0.1030435092
-0.06177503701
56.23788547
-0.3019239378
0.1128987034
-0.06335935979
56.23487425
-0.3019133976
0.1236091535
-0.06516188062
56.11141499
-0.2966846078
0.2389495517
-0.06666547762
55.99793317
-0.291386322
0.2224349039
-0.06743333659
55.52460805
-0.284984727
0.5739149282
-0.06709195847
55.21313386
-0.2812249002
0.4023295656
-0.06492877933
55.18245169
-0.2807286415
0.1096851208
-0.0609874518
55.16977186
-0.2823425593
0.07545954819
-0.05454568771
55.16861999
-0.2857692107
0.0440078262
-0.04609807536
55.20422318
-0.2920524547
-0.01640824385
-0.0351308999
55.26406555
-0.302434818
-0.06261499915
-0.02453354323
55.31588506
-0.3209545876
-0.06662966052
-0.01998732637
55.35007774
-0.348399415
-0.05488755921
-0.01705546398
55.3778353
-0.3832493492
-0.05287531782
-0.01350976209
55.68841405
-0.4171280366
-0.3351329091
-0.01354820865
56.15800128
-0.4615722385
-0.486975245
-0.01677887822
56.25978098
-0.4955243772
-0.1113720783
-0.01979627187
55.97640096
-0.5186175371
0.2751447731
-0.01970059438
55.11135509
-0.551836784
0.860101843
-0.01776069847
53.19988034
-0.5508742314
1.895471842
-0.007518074864
51.61471579
-0.5468460801
1.576106782
-0.01369687586
42.44816593
-0.4986795957
9.09782215
0.04721867982
46.76868392
-0.4437012554
-4.271934322
-0.06801250274
-0.4269241713
2.522669056
48.26170522
-4.033076745
47.91596372
0.000634442452
-2.523458741
-49.39044731
3.998711999
45.06802726
0.001409591454
4.227951635
-1.378507644
51.89033383
0.002594199875
-8.115508526
1.295975194
52.95014927
0.003049336565
-1.927044739
0.8709974772
54.65380938
0.0027318257
-2.080875178
0.381994103
55.47863077
0.001968320882
-0.9093896361
0.09019961857
56.27324258
1.614386001e-05
-0.7662821141
-0.02154021111
56.52144608
-0.002804653169
-0.1885738528
-0.0531156416
56.5349574
-0.007755985381
0.05543773943
-0.06294102678
56.54799082
-0.01482018358
0.05865132255
-0.06510322488
56.56024396
-0.02366583438
0.06003727125
-0.06483237975
56.57193996
-0.03410039507
0.06109344659
-0.06423889523
56.58334542
-0.04640395719
0.06206926478
-0.06360522068
56.59479244
-0.06095946185
0.06300428
-0.06292115255
56.60666121
-0.07804153986
0.06397278074
-0.06223234701
56.61939576
-0.09785869177
0.06505264537
-0.06158818122
56.63351196
-0.1205576143
0.06629626077
-0.06100800125
56.64955228
-0.1461598085
0.06773383271
-0.06046345019
56.66811611
-0.1745096257
0.06943342717
-0.06000814902
56.68969854
-0.20511277
0.07145532694
-0.05963079701
56.71464623
-0.2371488071
0.07391707531
-0.05937706132
56.74282937
-0.2693689425
0.07702047633
-0.05924117197
56.77378835
-0.2999617103
0.08093017522
-0.05938598732
56.80570792
-0.327360657
0.08609737819
-0.05969064465
56.83602281
-0.3480044763
0.0925101984
-0.06044367658
56.86183713
-0.3619545191
0.1007179729
-0.06159772781
56.87719496
-0.3650841824
0.1111221741
-0.06332012172
56.63922907
-0.3589823224
0.3600784893
-0.0650443135
56.20589477
-0.3449129006
0.548436718
-0.06687508804
56.00478484
-0.3316176497
0.3086008976
-0.06726135567
55.52416191
-0.3148577208
0.5775962201
-0.06710268957
55.21136715
-0.3032783317
0.3995658678
-0.06471990558
55.19352033
-0.296245055
0.09349746685
-0.06013715794
55.17922741
-0.2899431805
0.0750121151
-0.05312094842
55.1865943
-0.2830243729
0.0347957122
-0.04491089025
55.22139208
-0.2752950414
-0.015098647
-0.03645977562
55.2690411
-0.2700588872
-0.05005832653
-0.02997109168
55.30838573
-0.2751980197
-0.06166733565
-0.02343792659
55.33545059
-0.2938146491
-0.06662356855
-0.01503220847
55.35823886
-0.3227961631
-0.07561148276
-0.007635831457
55.66724625
-0.3566722359
-0.3636164278
-0.00585274512
56.13600086
-0.4020989687
-0.5195308051
-0.008703106934
56.33224387
-0.4410163691
-0.2396861369
-0.01107177131
56.06414158
-0.4676816323
0.2274624431
-0.01030309367
55.09987166
-0.5059591442
0.9264914388
-0.008106562924
53.1934879
-0.5098951774
1.863800454
0.001598732653
51.61481198
-0.5088419776
1.546622674
-0.005954854959
42.45390021
-0.4666551548
9.073987819
0.05489546979
46.77552475
-0.4159068833
-4.28630076
-0.06311922906
-0.3988925248
2.508970905
48.27228524
-4.033763316
47.91530497
0.000284596226
-2.52338724
-49.39029468
3.998727134
45.06663153
0.0006555420495
4.227916028
-1.378488346
51.8862138
0.001080387349
-8.115975677
1.297907465
52.94374432
0.0008736988968
-1.927363008
0.8720083064
54.64577992
-0.0003580355619
-2.081320193
0.3823746623
55.46890975
-0.001806647321
-0.9095953383
0.09024070959
56.26259566
-0.005044090268
-0.7672258899
-0.02139951616
56.7458328
-0.008276606396
-0.4245007656
-0.05326413077
56.97463536
-0.01355090709
-0.1598863613
-0.06312095286
56.98717385
-0.02059279628
0.05829902115
-0.06506455871
56.99840417
-0.02983672633
0.05964375443
-0.06470279984
57.00876346
-0.04093450882
0.06054761624
-0.06407237112
57.01854223
-0.05417702401
0.06137836114
-0.06338361913
57.02805192
-0.07001207632
0.06220436695
-0.06266096984
57.03770629
-0.08882245488
0.06304983172
-0.06192280195
57.04803251
-0.1109271862
0.06395939655
-0.0612166467
57.05969148
-0.1366207942
0.06497943739
-0.06057475293
57.07343964
-0.1660657852
0.06609154276
-0.05993324589
57.09019256
-0.1992298941
0.06733367405
-0.05936584286
57.11084194
-0.2356544655
0.06872601405
-0.05883322611
57.1362851
-0.2745722865
0.07036191073
-0.05838115132
57.16720899
-0.3146743689
0.07242674759
-0.05804484853
57.12135238
-0.3528378279
0.1566517889
-0.05791879363
57.06137464
-0.3858040181
0.1761938642
-0.05777265266
57.06341538
-0.4112005052
0.1193464951
-0.05819125195
57.09852215
-0.4267986783
0.08880951644
-0.05907230041
57.12296219
-0.4286290808
0.09996208158
-0.06085755255
56.65499381
-0.416799005
0.5888111502
-0.06302667998
56.22660275
-0.3930052875
0.5409177117
-0.06443518081
56.02649381
-0.3689682472
0.3028189605
-0.06536118197
55.54880776
-0.3417061895
0.5700823126
-0.06555018414
55.2364771
-0.3196216347
0.3919558942
-0.06328451889
55.2147348
-0.3018681575
0.08560572435
-0.05824240329
55.20213523
-0.2870471383
0.06101384941
-0.05131352823
55.19277969
-0.2715638881
0.0414728056
-0.04358133194
55.21813399
-0.250822085
-0.01570053578
-0.03413034957
55.25633844
-0.2280300078
-0.05430925026
-0.02592689207
55.28976444
-0.2162587037
-0.07474168111
-0.01762856806
55.31393009
-0.221887484
-0.08880800108
-0.007289801158
55.33707862
-0.2442493095
-0.1035423971
0.001840562774
55.64904563
-0.2765450745
-0.3966892376
0.004590243844
56.12389872
-0.3208414214
-0.5583766298
0.002259749706
56.2347311
-0.3621818108
-0.1905944628
0.0009217033366
56.1623178
-0.3941149923
-0.003796152569
0.002635575556
55.09381931
-0.4276841733
0.9855959481
0.004620347662
53.19202209
-0.4403735502
1.815715792
0.01655459597
51.61027854
-0.4378053249
1.501718445
0.008984751174
42.45761758
-0.4029257594
9.0150497
0.07387815337
46.78023956
-0.3590986829
-4.334647928
-0.04478319999
-0.3466402292
2.457098003
48.29944389
-4.028554879
47.91523933
-0.0001298006457
-2.523433289
-49.39014065
3.998749327
45.06666853
-0.0001267936702
4.227798594
-1.378445214
51.88626824
-0.0003641979272
-8.116437174
1.298282278
52.9438235
-0.001078593892
-1.927867684
0.8722649197
54.64559518
-0.002669788357
-2.08201122
0.382551489
55.46832804
-0.00452539401
-0.9104473616
0.09043348269
56.26123191
-0.008341830732
-0.7684344329
-0.02117142809
56.7436796
-0.01182277722
-0.4258467668
-0.0530544643
57.18640211
-0.01769761204
-0.3753351019
-0.06324040252
57.1975056
-0.02440435774
0.05773369362
-0.06502529539
57.20652815
-0.033589001
0.05938090515
-0.06465081409
57.21430081
-0.04496575511
0.06035827645
-0.06409928439
57.22116493
-0.0587615969
0.06115373345
-0.06343285965
57.22740514
-0.07543236294
0.0619194069
-0.06273888151
57.23342971
-0.09547076719
0.06263225608
-0.06200806235
57.23986359
-0.1193524506
0.06328611989
-0.06129427922
57.24750019
-0.147537201
0.06390044024
-0.06062017476
57.25733599
-0.1803878653
0.06440059803
-0.05991384773
57.27065572
-0.2180915038
0.0647643859
-0.05922202543
57.28920309
-0.2605804238
0.06494739017
-0.05856834059
57.23287998
-0.3067433023
0.1464137147
-0.05791915913
57.16731487
-0.35452577
0.1625648297
-0.05714796372
57.04846677
-0.4011709538
0.2237697573
-0.0565882992
56.85434826
-0.4420541522
0.3062927786
-0.05592402404
56.81000496
-0.4734668579
0.1621983026
-0.0555887056
56.85896609
-0.4921944173
0.07265622267
-0.05622186729
56.896837
-0.4926017385
0.08427313722
-0.05817140152
56.67646202
-0.4736464995
0.3379318241
-0.06070993505
56.25364681
-0.4395465466
0.5322383414
-0.06288222559
56.05396674
-0.4011482523
0.296320043
-0.0644616692
55.57999414
-0.3640349205
0.5609681871
-0.06466882054
55.27294125
-0.3351094161
0.3842448145
-0.06170648144
55.26568115
-0.3145085737
0.07639126333
-0.05649327235
55.27636497
-0.2919598173
0.04233897603
-0.0481126356
55.27142006
-0.2614908474
0.0337578241
-0.03889026704
55.29202049
-0.2137037094
-0.0254659493
-0.03225577014
55.29611299
-0.158320009
-0.04620903936
-0.0275974626
55.29989351
-0.1253823566
-0.0756911387
-0.01896790859
55.30233343
-0.1170351124
-0.103860272
-0.003438316345
55.3151304
-0.1371194848
-0.1261437153
0.006211515685
55.59242126
-0.1690523825
-0.3956689489
0.01087950434
55.84164904
-0.2135786964
-0.366130462
0.009635791915
55.86476569
-0.2588263315
-0.135342326
0.008864413854
55.89241083
-0.3022812359
-0.1295311716
0.01004602399
55.0830196
-0.3366916186
0.7064906771
0.01190240709
53.19104921
-0.3671571425
1.797240474
0.02150883314
51.61801072
-0.3716461822
1.495196452
0.01167975009
42.46974484
-0.34990668
9.020923146
0.07431987725
46.79279484
-0.3087500384
-4.327114445
-0.04628513143
-0.295395859
2.464738906
48.30883657
-4.032025421
47.91478215
-0.0003125314704
-2.523394339
-49.38997098
3.998766273
45.06581897
-0.0004881796673
4.227770652
-1.378445871
51.88457362
-0.001180818327
-8.116131781
1.298194035
52.94101824
-0.002134025889
-1.927563707
0.8721746971
54.64168257
-0.004053670385
-2.081806371
0.3825261293
55.46302147
-0.006076468806
-0.9102024397
0.09041484595
56.25448796
-0.01028734739
-0.7684007596
-0.02111993321
56.73530424
-0.01375547575
-0.4258580092
-0.05302529111
57.17607891
-0.01987070002
-0.3753380239
-0.06326324768
57.18539057
-0.02639505331
0.05769520116
-0.06501583487
57.19236758
-0.03535047305
0.05936000318
-0.06457517975
57.19772481
-0.04662996096
0.060307839
-0.06400046775
57.20174338
-0.0605092396
0.06102664051
-0.0632971367
57.2046556
-0.07746922455
0.06168596084
-0.06256086503
57.20682733
-0.09810481537
0.06223846272
-0.06177567879
57.20890771
-0.1230696348
0.06262184906
-0.06098457605
57.21180588
-0.1530298623
0.06278662833
-0.06019165376
57.21676737
-0.1885686596
0.06257067066
-0.05935085746
57.19987066
-0.2303034789
0.08757511798
-0.05846591562
57.12801469
-0.2783184869
0.1470903194
-0.05749577743
56.92523683
-0.3311935658
0.2835213172
-0.05629272714
56.71779766
-0.3869350041