/*--------------------------------*- C++ -*----------------------------------*\
| =========                 |                                                 |
| \\      /  F ield         | OpenFOAM: The Open Source CFD Toolbox           |
|  \\    /   O peration     | Version:  2.2.1                                 |
|   \\  /    A nd           | Web:      www.OpenFOAM.org                      |
|    \\/     M anipulation  |                                                 |
\*---------------------------------------------------------------------------*/
FoamFile
{
    version     2.0;
    format      ascii;
    class       volVectorField;
    location    "7";
    object      U;
}
// * * * * * * * * * * * * * * * * * * * * * * * * * * * * * * * * * * * * * //

dimensions      [0 1 -1 0 0 0 0];

internalField   nonuniform List<vector> 
86889
(
(15.03496379 0.006001918371 0.004878708596)
(15.05344206 0.004763323271 0.006238112894)
(15.05654314 0.001968400868 0.006448108424)
(15.06185678 0.001679305846 0.004623811803)
(15.06913162 0.000384822943 0.002494473818)
(15.07646699 -0.001653941582 0.0005306609707)
(15.08196344 -0.003166477581 -0.000936552582)
(15.08652649 -0.004168703699 -0.002044594742)
(15.09089841 -0.004897946132 -0.002931872048)
(15.0949818 -0.005405094942 -0.003603621818)
(15.09884569 -0.005732934591 -0.004083798201)
(15.10245069 -0.005918129154 -0.004386656312)
(15.10600839 -0.006016172214 -0.004554425163)
(15.10946855 -0.006072091831 -0.004630288485)
(15.11286855 -0.00612139153 -0.004613299319)
(15.11626908 -0.006167327929 -0.004495916616)
(15.11970465 -0.0062270012 -0.004303019395)
(15.12313186 -0.006319736474 -0.004032347586)
(15.12652627 -0.006440691948 -0.003700564941)
(15.129914 -0.006582115827 -0.003268137507)
(15.13314089 -0.006740525906 -0.002739228662)
(15.13627719 -0.006893991126 -0.002106118004)
(15.13898565 -0.007010353233 -0.001408983371)
(15.14125128 -0.007104664081 -0.0005593584843)
(15.1425965 -0.007173213398 0.000424392503)
(15.1428343 -0.007199060896 0.001467602116)
(15.14184455 -0.007107676863 0.002836439924)
(15.13933671 -0.007133517079 0.00421326263)
(15.13515719 -0.006951700073 0.005648748027)
(15.12943989 -0.00734806326 0.00705660715)
(15.12220148 -0.007779967526 0.008220699243)
(15.11276787 -0.008320008534 0.009584411774)
(15.10098746 -0.009439314398 0.01081121513)
(15.08716618 -0.01074010369 0.01323673645)
(15.07595792 -0.01292851403 0.01557720644)
(15.07367107 -0.01256513346 0.01492606584)
(15.07975865 -0.02034278393 0.01810668574)
(15.08788544 -0.02314059351 0.01978831053)
(15.09187212 -0.02339911961 0.02062464386)
(15.09267738 -0.02393248117 0.02089459129)
(15.08918306 -0.0252785872 0.02287126691)
(15.0840488 -0.02627327748 0.02697044421)
(15.07741077 -0.0269262559 0.03192919173)
(15.07198488 -0.02740927714 0.03524757104)
(15.06326538 -0.02891792591 0.03768187208)
(15.06038261 -0.0304791388 0.03802077235)
(15.04510515 -0.03226167242 0.03923117752)
(15.0669608 -0.03899218459 0.03483087424)
(14.94193525 -0.04533900145 0.02480449868)
(15.29339451 -0.1396609402 -0.07207705039)
(15.01777493 0.007422112487 0.005851895024)
(15.02839888 0.01088512531 0.005890876089)
(15.03535316 0.0137529549 0.005862824651)
(15.04238069 0.01790775654 0.005815414827)
(15.04893087 0.02111606076 0.005138620981)
(15.05469801 0.02285509279 0.00425874797)
(15.05955862 0.02362147405 0.003595570045)
(15.06371231 0.02380888835 0.003181434029)
(15.06753469 0.02362088164 0.002904380415)
(15.07113386 0.02317385158 0.002706129628)
(15.07455195 0.0225342757 0.002594351052)
(15.07781239 0.02174300823 0.002568297584)
(15.08100128 0.02081666201 0.002612625627)
(15.08418992 0.01977725696 0.00271020459)
(15.087446 0.0186333779 0.002858969578)
(15.09082214 0.01740163661 0.003069538796)
(15.09436511 0.01609621096 0.003324189542)
(15.09810264 0.01471984752 0.003639240951)
(15.10201935 0.01328249139 0.003987680942)
(15.10608476 0.01181725254 0.004389207691)
(15.11024192 0.01036400484 0.004850537376)
(15.11436078 0.008951093354 0.005393226)
(15.11842695 0.007550417368 0.006056974766)
(15.12200374 0.006243370092 0.006816033692)
(15.12500951 0.004945195804 0.007769785846)
(15.1269947 0.003759656371 0.008905984632)
(15.12780223 0.002733251288 0.01022006524)
(15.1272144 0.00164388279 0.01154334994)
(15.12512209 0.0004640039654 0.01302470722)
(15.12143328 -0.0009982474168 0.01418421287)
(15.11658953 -0.002994112001 0.01538690266)
(15.11067994 -0.005941683159 0.01635207227)
(15.10541536 -0.009425901109 0.01742784521)
(15.09951874 -0.01489450387 0.01787346978)
(15.09865723 -0.01960903378 0.01923189161)
(15.09148714 -0.02322244777 0.01394775397)
(15.11469468 -0.0317435366 0.01650668289)
(15.12723572 -0.03584024022 0.02026507382)
(15.13286379 -0.04052826866 0.02313358024)
(15.13365289 -0.04514958524 0.02329701913)
(15.13192354 -0.04962182859 0.02371983288)
(15.12977817 -0.05297025336 0.02639709403)
(15.1271486 -0.05586362062 0.02994593493)
(15.12478111 -0.05818217924 0.03221077363)
(15.1204597 -0.06131149816 0.03339534688)
(15.11863175 -0.06413742776 0.03368510316)
(15.10845528 -0.06705463661 0.03295469982)
(15.12464084 -0.06943583081 0.03113917738)
(15.04806734 -0.0840960749 0.02763111293)
(15.22324077 -0.06491926762 -0.04264141464)
(15.01641874 0.003324110387 0.006041761873)
(15.02265176 0.004867418398 0.007287843802)
(15.0274679 0.005895658117 0.01127983158)
(15.03395329 0.006494644812 0.008501484038)
(15.04073442 0.006793236407 0.004450179632)
(15.04678203 0.006431650832 0.002520084582)
(15.05158267 0.005997802582 0.002716817603)
(15.05632359 0.005395876727 0.00318424966)
(15.06109356 0.00463628559 0.00327241681)
(15.06582881 0.00383088797 0.003163751712)
(15.07041226 0.003002192649 0.003040799218)
(15.0748412 0.002089388687 0.002962587901)
(15.07923713 0.001030458286 0.002935929113)
(15.0836408 -0.0002171322516 0.002969998858)
(15.08811819 -0.001661647915 0.00307227718)
(15.09272152 -0.003290125399 0.003235543415)
(15.09747579 -0.005082797285 0.003443162634)
(15.10240116 -0.007015858619 0.003693531049)
(15.10752832 -0.009055362554 0.004003126412)
(15.11285591 -0.01115460607 0.004380118951)
(15.11831436 -0.01326118849 0.004835680725)
(15.12378204 -0.01530520332 0.005368503338)
(15.12916035 -0.01728275469 0.006054864603)
(15.13416737 -0.01911328027 0.00683130003)
(15.13851284 -0.02073719924 0.007739959068)
(15.14194293 -0.02220127441 0.008825768159)
(15.14406883 -0.02353754989 0.01008362222)
(15.14461767 -0.02473688742 0.01131191741)
(15.14350788 -0.02607384115 0.01262217042)
(15.14061887 -0.02783927264 0.01377503608)
(15.13629878 -0.03021704602 0.01494778218)
(15.13103062 -0.03366051214 0.01562067363)
(15.12623321 -0.03788000728 0.01612833208)
(15.1217382 -0.04381645729 0.01546445865)
(15.12178781 -0.04939016202 0.015705641)
(15.11604546 -0.05660347018 0.009885410849)
(15.13794317 -0.06258043155 0.008825917174)
(15.15008902 -0.06889741685 0.01102852027)
(15.15650992 -0.07584000395 0.01254040394)
(15.15921795 -0.083118776 0.01243752721)
(15.16032744 -0.08967662786 0.01318540317)
(15.16142033 -0.09467506779 0.01596069161)
(15.16202617 -0.09902109589 0.01924488375)
(15.16238214 -0.1024193976 0.02132165189)
(15.16014508 -0.1059877643 0.02238302381)
(15.16318322 -0.1095371468 0.022145956)
(15.14366649 -0.1117504719 0.02133799902)
(15.19114866 -0.1158561252 0.01697731736)
(15.06857785 -0.1288228171 0.01198711077)
(15.22971478 -0.1366834054 -0.05864657183)
(15.01613617 0.002214299681 0.005755438459)
(15.02339121 0.004361050937 0.006235330528)
(15.02844617 0.007559439537 0.01023470509)
(15.03725534 0.01013191334 0.007669527025)
(15.04389069 0.0122246108 0.006411444793)
(15.04941264 0.01317406603 0.005155431593)
(15.05485427 0.01349739486 0.004528912812)
(15.05919548 0.01344396902 0.005432183366)
(15.0634798 0.01295867961 0.006466822855)
(15.06777765 0.01212699172 0.006947523945)
(15.07196211 0.01105933557 0.007140541391)
(15.07593516 0.00980690904 0.00728209674)
(15.07985254 0.00833131206 0.007417167294)
(15.08380594 0.006625901374 0.007502902856)
(15.08790966 0.004677771531 0.007591714921)
(15.09223443 0.002450750563 0.007725757529)
(15.09683427 -5.525403188e-05 0.007906408458)
(15.10174739 -0.002810937796 0.008140004997)
(15.10697838 -0.005760376945 0.008440077235)
(15.11250564 -0.008850869465 0.008824902118)
(15.1182879 -0.01200977145 0.009287391087)
(15.12416856 -0.01511594301 0.009840523454)
(15.13015991 -0.01815917244 0.01053120293)
(15.13571109 -0.02087246402 0.01134135557)
(15.14091664 -0.0233831291 0.01234118659)
(15.14496231 -0.02543956703 0.01342395935)
(15.14787897 -0.0273890184 0.01479300272)
(15.14886724 -0.02888388484 0.01604885136)
(15.14806878 -0.03054388611 0.01743488305)
(15.14521852 -0.03262047489 0.01870688399)
(15.14058075 -0.03539345672 0.01964375155)
(15.13488886 -0.03921313351 0.02000723785)
(15.12935225 -0.04410427382 0.01941883127)
(15.12498277 -0.05041788135 0.01750535981)
(15.12332529 -0.0573540302 0.01438496437)
(15.12333758 -0.06657898623 0.008714847399)
(15.1300604 -0.07340861969 0.005160538206)
(15.13748309 -0.08132359468 0.003285721159)
(15.14291218 -0.09071846974 0.0009923506344)
(15.14714339 -0.1009434319 -0.001016954928)
(15.15084882 -0.1090296651 -0.001098558893)
(15.15467261 -0.1158399727 0.0006222606107)
(15.15743481 -0.1210666492 0.002448960358)
(15.15941627 -0.1260543612 0.003795624494)
(15.15906053 -0.1307539481 0.004373330901)
(15.16234208 -0.1356264005 0.004470860334)
(15.14949309 -0.1403156003 0.003791204872)
(15.19079605 -0.1442192539 -0.0006228137786)
(15.06630814 -0.1494832471 -0.00114890912)
(15.22872925 -0.1497716601 -0.06924150128)
(15.01618665 0.001413938789 0.006017256633)
(15.02228868 0.002664291038 0.006207152296)
(15.02622861 0.004055935569 0.01044755819)
(15.03449389 0.004828449452 0.007794727379)
(15.03993624 0.005482874667 0.00576838161)
(15.04404836 0.005533859871 0.004688573836)
(15.04838887 0.004613165003 0.003516761129)
(15.05273256 0.003442655405 0.004068607829)
(15.05708285 0.002161947199 0.005029135427)
(15.06159954 0.0006743753815 0.005410922636)
(15.06617625 -0.001069167798 0.005445231965)
(15.07070058 -0.003075821291 0.00546316675)
(15.075188 -0.005362007164 0.005475200126)
(15.07969944 -0.007899449605 0.005514739401)
(15.08428116 -0.01068291178 0.005563095141)
(15.08899678 -0.01373263751 0.005631477266)
(15.09393261 -0.01705730493 0.005741403282)
(15.09916245 -0.02065561274 0.005914107685)
(15.104738 -0.02449459052 0.006162649592)
(15.11067363 -0.02850383201 0.006493100202)
(15.11695649 -0.03258495183 0.006912884567)
(15.1234567 -0.03658846174 0.007433500712)
(15.13017955 -0.0404405689 0.00808970216)
(15.13654906 -0.04382416366 0.00888852009)
(15.14273939 -0.0468800826 0.009894228476)
(15.147666 -0.04921183205 0.01098459753)
(15.15150889 -0.05120446622 0.01241040168)
(15.1530176 -0.05258593418 0.01375369519)
(15.15249867 -0.05386314464 0.01510112279)
(15.1496285 -0.0554338026 0.01627571544)
(15.14473725 -0.05766547058 0.01705126854)
(15.13859469 -0.06090156992 0.01684933346)
(15.1325016 -0.06510121489 0.01516648224)
(15.12767349 -0.07035237197 0.01149807064)
(15.12518257 -0.07651495459 0.006481746704)
(15.12517398 -0.08389625143 -0.0002593330447)
(15.12773418 -0.09070568566 -0.006241603663)
(15.1314505 -0.09852761712 -0.01160245537)
(15.1355744 -0.107521653 -0.01634066639)
(15.1408636 -0.1171533246 -0.01916042342)
(15.14682439 -0.1252119452 -0.0193852498)
(15.15357787 -0.132897847 -0.01815200798)
(15.15817998 -0.1383720429 -0.01694920407)
(15.1624535 -0.1438369065 -0.01606436455)
(15.16203504 -0.148939715 -0.01544386749)
(15.17215828 -0.1533562517 -0.01525118948)
(15.15554582 -0.1602049655 -0.01537295963)
(15.19595727 -0.1614420585 -0.01918257963)
(15.07209035 -0.1658702606 -0.01796633382)
(15.23495397 -0.1677866357 -0.08493209813)
(15.01626909 0.001069528187 0.005988958423)
(15.02258414 0.002093846309 0.006005015497)
(15.02696385 0.003661681831 0.009954692892)
(15.03590327 0.004739983324 0.007211274173)
(15.04212991 0.005954874733 0.004863269885)
(15.04593057 0.006841921966 0.0034878744)
(15.04996195 0.007120817649 0.002864663306)
(15.0542403 0.00669495781 0.004015185284)
(15.05851942 0.005892963402 0.005372111117)
(15.06255831 0.004910965075 0.005939571738)
(15.06643396 0.003691481421 0.006099746022)
(15.07019075 0.002100930813 0.006173855981)
(15.07391861 6.377191954e-05 0.006246679265)
(15.07773839 -0.002451137372 0.006320819825)
(15.08171787 -0.005445874748 0.006406599879)
(15.08591624 -0.008906987476 0.006525138169)
(15.09040765 -0.0128215667 0.00668018816)
(15.09527022 -0.01716281041 0.006885317929)
(15.10057576 -0.02187894411 0.007153834545)
(15.10637441 -0.02688145369 0.007495897176)
(15.11267565 -0.0320374315 0.007924879234)
(15.11942084 -0.03716930578 0.008465977613)
(15.12647789 -0.04206160122 0.009121839383)
(15.13357755 -0.04649364597 0.009957075828)
(15.14041337 -0.05028234979 0.01096016792)
(15.14626443 -0.05315215014 0.01214477527)
(15.15079108 -0.05523068601 0.01363624934)
(15.15291825 -0.05647420718 0.0151550589)
(15.15212189 -0.05718381331 0.01647952743)
(15.14930062 -0.05807963915 0.01762951638)
(15.1444355 -0.059496271 0.01809634053)
(15.13702566 -0.06177088806 0.0172419722)
(15.12998252 -0.06460686695 0.01441186162)
(15.12419704 -0.06850051261 0.008772872911)
(15.12079031 -0.07358541942 0.00116269283)
(15.11970609 -0.08014966406 -0.00707563415)
(15.12059428 -0.08768034544 -0.01507192948)
(15.12259313 -0.09620736659 -0.02305686658)
(15.12557795 -0.1054355191 -0.02998244249)
(15.13103627 -0.115308446 -0.03469837464)
(15.13738796 -0.1241998114 -0.03586507488)
(15.14568821 -0.1333762057 -0.03524484863)
(15.15247948 -0.1403711449 -0.03469795566)
(15.1575301 -0.146342912 -0.03432093514)
(15.16010632 -0.1544840876 -0.03395785561)
(15.16745085 -0.1600101926 -0.03371148979)
(15.15357862 -0.1654786178 -0.03307210461)
(15.19484717 -0.1668814459 -0.03654757691)
(15.0728617 -0.1716977373 -0.03242330684)
(15.23826983 -0.1731953951 -0.09873224232)
(15.01623648 0.0006461039869 0.006041811833)
(15.0221464 0.001225332227 0.00600232667)
(15.02563646 0.001906953204 0.01004430099)
(15.03444016 0.002202591403 0.007162044645)
(15.03935753 0.002254400627 0.004586134781)
(15.04316357 0.002133734665 0.002327406317)
(15.04547894 0.00178367878 0.001287059022)
(15.04892109 0.0006049288494 0.002572290423)
(15.05282388 -0.001198632428 0.00430387899)
(15.05699919 -0.003293918498 0.005074228526)
(15.06112216 -0.005626364426 0.005269609917)
(15.06496412 -0.008197242588 0.005356069085)
(15.06868731 -0.0111121423 0.005427842671)
(15.0724204 -0.0144430077 0.005483972695)
(15.07625222 -0.01824594696 0.005544379164)
(15.08025988 -0.02255602668 0.005635437577)
(15.08454211 -0.02739202105 0.005762104837)
(15.08921058 -0.03274617152 0.005934185815)
(15.09437736 -0.03857336103 0.006163666053)
(15.10013969 -0.04478032534 0.006459071959)
(15.10655924 -0.05120866242 0.006835628506)
(15.11365107 -0.05764090367 0.007323988453)
(15.12127439 -0.06375975191 0.007935917789)
(15.12927466 -0.06931011465 0.008731255658)
(15.13723633 -0.07390809617 0.009732687738)
(15.14438472 -0.07720632288 0.01096407745)
(15.15019015 -0.07916903913 0.0124285392)
(15.15342253 -0.079704754 0.01419241534)
(15.15371456 -0.07949789042 0.01536438666)
(15.15064503 -0.07914087676 0.01631335648)
(15.14469702 -0.07884736763 0.01651217966)
(15.13696121 -0.07918669891 0.01492990098)
(15.12908525 -0.08007231553 0.01075201528)
(15.12233526 -0.0815294299 0.002792202351)
(15.11745823 -0.08334940945 -0.007475957549)
(15.11440974 -0.08570896594 -0.01877045906)
(15.11338748 -0.08870219245 -0.02844837532)
(15.11412093 -0.0935657108 -0.037722038)
(15.11664589 -0.1004975442 -0.04612770383)
(15.12294756 -0.1096532907 -0.05244524165)
(15.12907957 -0.1178702986 -0.05392566059)
(15.14027608 -0.1285658389 -0.05324243483)
(15.14758363 -0.1359684128 -0.05280807785)
(15.15563946 -0.1421765105 -0.0528379485)
(15.15825686 -0.152704117 -0.05191945935)
(15.16671711 -0.1566009162 -0.05157576314)
(15.155083 -0.1615098174 -0.05035442626)
(15.19711722 -0.1626207682 -0.0538333362)
(15.07689946 -0.1658762907 -0.04740685402)
(15.24464287 -0.1665967869 -0.1133102807)
(15.01629873 0.0004498257048 0.006026003171)
(15.02221067 0.0008918174409 0.005948308444)
(15.02617812 0.001497286132 0.00986928218)
(15.03464183 0.001864939489 0.007039312967)
(15.04043406 0.002148664732 0.004166346522)
(15.04378705 0.002313568145 0.001831268623)
(15.04693609 0.002308816086 0.000427385133)
(15.04910396 0.002039136438 0.001549971025)
(15.0526898 0.001214723314 0.003569726996)
(15.05638527 -0.0001827024019 0.004723584249)
(15.05987661 -0.002018776741 0.00511843823)
(15.06312368 -0.004296110715 0.005298037368)
(15.06620012 -0.007073083867 0.005430209547)
(15.0692424 -0.01043391009 0.005541195913)
(15.07236201 -0.01444147951 0.005647830822)
(15.07565694 -0.01913788714 0.005769028326)
(15.07924403 -0.02455264156 0.005916565759)
(15.08326573 -0.03069032069 0.006090858566)
(15.08787953 -0.03751343423 0.006310942622)
(15.09324973 -0.04492083246 0.006582858489)
(15.09950846 -0.05272674238 0.006923242235)
(15.10676553 -0.06064911344 0.007351730271)
(15.11487952 -0.06824072679 0.007890746122)
(15.12402251 -0.07530446537 0.00863372973)
(15.1329689 -0.08079641826 0.009560372072)
(15.14216236 -0.0848241897 0.01083571371)
(15.14922155 -0.08652848007 0.01233441033)
(15.15442508 -0.08640112701 0.01371141955)
(15.15539255 -0.08444713718 0.01545645866)
(15.15249295 -0.08241861225 0.01640593843)
(15.14576146 -0.07944837022 0.01651383577)
(15.13755103 -0.07731163286 0.01434393853)
(15.12904739 -0.07591522531 0.008687980738)
(15.12254403 -0.07514295054 -0.001300912055)
(15.11845712 -0.07517213148 -0.01384556152)
(15.11605709 -0.07605127309 -0.02780840744)
(15.11388137 -0.07796245815 -0.03967136989)
(15.11140975 -0.08184819266 -0.0506259811)
(15.11072878 -0.08827813707 -0.06050641519)
(15.11484435 -0.09673581592 -0.06742100164)
(15.12069005 -0.1052847672 -0.06899292213)
(15.13159293 -0.1163169444 -0.06804877709)
(15.13987006 -0.125196399 -0.06719391339)
(15.1489619 -0.1318974648 -0.06717148219)
(15.15338932 -0.1434279097 -0.0658279243)
(15.16203239 -0.1484724998 -0.06516576534)
(15.15326506 -0.154823617 -0.06267914694)
(15.19682489 -0.1569793407 -0.06553207445)
(15.07829377 -0.1619255634 -0.05648036562)
(15.24765639 -0.163590248 -0.1217451645)
(15.01631683 0.0002071787601 0.006047930868)
(15.02189932 0.0004062083204 0.005954507123)
(15.0257218 0.000551870088 0.009923648441)
(15.03341597 0.0004896332509 0.00712900808)
(15.03899663 0.0001104259071 0.004049057278)
(15.0415751 -0.0003848493704 0.00168323947)
(15.04459264 -0.001413185254 -6.415444554e-05)
(15.04614679 -0.002343488902 0.0009678713027)
(15.04899234 -0.003818759388 0.00296766503)
(15.05238525 -0.005850186036 0.004246987546)
(15.05567587 -0.008391969121 0.004808373873)
(15.05866828 -0.01132922193 0.005031589111)
(15.06137798 -0.01474574916 0.005150698523)
(15.06395134 -0.01876313968 0.005254101691)
(15.06652349 -0.02347694821 0.005354448786)
(15.06920782 -0.02896482478 0.005458513581)
(15.07213976 -0.03529488017 0.005580015946)
(15.07549862 -0.04250761809 0.005707664338)
(15.0795031 -0.05060110613 0.00585818744)
(15.08439115 -0.05948325346 0.006026544786)
(15.09044068 -0.0689724667 0.006237556259)
(15.09778195 -0.07876014886 0.006510325174)
(15.10681861 -0.08831180701 0.006875158328)
(15.11717095 -0.09700497479 0.007409148836)
(15.12770861 -0.1039949985 0.008157567425)
(15.13971014 -0.1088910768 0.009368713923)
(15.14826273 -0.1102849223 0.01071431038)
(15.15685047 -0.1090259492 0.01227802962)
(15.1591936 -0.1050086321 0.01413521052)
(15.1567355 -0.1007669903 0.01539715293)
(15.1499753 -0.09535484005 0.01545279765)
(15.14202155 -0.09144549333 0.01300175598)
(15.13212288 -0.08746725192 0.005551025926)
(15.1237467 -0.08268116299 -0.007424412585)
(15.11735377 -0.07694921563 -0.02414930123)
(15.11241001 -0.07019289359 -0.04341847378)
(15.10824524 -0.06425693026 -0.05990304857)
(15.10458424 -0.06274470987 -0.07342526196)
(15.10328727 -0.06636487037 -0.08446963328)
(15.10688224 -0.07348787977 -0.09187509929)
(15.11330068 -0.08256636577 -0.09368093112)
(15.12443136 -0.09443659367 -0.09242341589)
(15.13495783 -0.1050234023 -0.09164538225)
(15.14366777 -0.112910691 -0.09145814512)
(15.15034877 -0.125596218 -0.08977957032)
(15.15868371 -0.1309552756 -0.08908056379)
(15.15137413 -0.1358502192 -0.08628654608)
(15.19528742 -0.1370592581 -0.08937665974)
(15.07955145 -0.1400915031 -0.07698184818)
(15.25301611 -0.1406674444 -0.1414758115)
(15.01632448 0.000100019214 0.006034322331)
(15.0219523 0.0002241190546 0.005935851149)
(15.02580043 0.000354615561 0.00987720474)
(15.03355684 0.0003712568718 0.007053616938)
(15.03910044 0.0002302637397 0.003929004162)
(15.0416135 -1.455400389e-05 0.001480519152)
(15.04446153 -0.0006501014176 -0.0004128714021)
(15.04585652 -0.001299065903 0.0005075681109)
(15.04813966 -0.002458831607 0.002519664271)
(15.0509273 -0.003934090297 0.003839261554)
(15.05368297 -0.006056157257 0.004593087593)
(15.05611744 -0.008720129014 0.004929384633)
(15.05815534 -0.01198834387 0.005084147262)
(15.05994152 -0.0159784043 0.00521263261)
(15.06163334 -0.02080651132 0.005332760519)
(15.06335928 -0.02658155016 0.005438818641)
(15.0652733 -0.03340809847 0.005539965995)
(15.06758584 -0.04136584623 0.005614822643)
(15.07060843 -0.05049366837 0.005672512013)
(15.07459596 -0.06075778844 0.005704339426)
(15.08030452 -0.07199614861 0.005713212252)
(15.08767485 -0.08388880268 0.005721069544)
(15.09720644 -0.09571118739 0.005817599035)
(15.1091521 -0.1064762855 0.006076358153)
(15.12205814 -0.1152088353 0.006669118643)
(15.13599875 -0.1208466786 0.007647976773)
(15.14952628 -0.1221069143 0.009159347331)
(15.15955233 -0.1190499983 0.01091911295)
(15.16508868 -0.1119833487 0.01297411615)
(15.1626478 -0.1031810313 0.01467551886)
(15.15609777 -0.09360917456 0.01509556836)
(15.14667241 -0.08616339375 0.01211862158)
(15.13891046 -0.08162847153 0.005134665732)
(15.13408837 -0.07860150344 -0.007036058338)
(15.13208083 -0.07576436309 -0.02199420616)
(15.12998061 -0.07060916232 -0.03798242229)
(15.12300725 -0.06258959022 -0.05509625058)
(15.11166218 -0.05526242123 -0.07203254679)
(15.1007319 -0.052162475 -0.09056192984)
(15.09993003 -0.05520036497 -0.09926375743)
(15.10408248 -0.06209672957 -0.1019506108)
(15.1136003 -0.07241765218 -0.1017056199)
(15.12442953 -0.08323476088 -0.1014637838)
(15.13308048 -0.09339085718 -0.1005771639)
(15.1450879 -0.1028149458 -0.09945117636)
(15.15376732 -0.1134834558 -0.09638204296)
(15.15098105 -0.1193420568 -0.09291182469)
(15.19721606 -0.1234461703 -0.09481050871)
(15.08265552 -0.1274374924 -0.07996782017)
(15.25638521 -0.1288084606 -0.1438786293)
(15.01632197 -5.232369148e-05 0.006042917537)
(15.02178573 -6.71367947e-05 0.005936726037)
(15.02553494 -0.0002586591563 0.00990739923)
(15.03292866 -0.0005035596924 0.007100337486)
(15.03829941 -0.001059553101 0.003907912598)
(15.04039223 -0.00161457794 0.001487592963)
(15.04299259 -0.002780348051 -0.0004951223501)
(15.04394794 -0.003710848341 0.0003822163517)
(15.04582749 -0.005338871345 0.002369763644)
(15.04817196 -0.00708345801 0.003689769688)
(15.0504342 -0.009472846458 0.00447172773)
(15.05232958 -0.01243709764 0.00482769693)
(15.05373681 -0.01603590765 0.004977911062)
(15.05477047 -0.02038639694 0.005091245791)
(15.05557771 -0.02563079153 0.005189828379)
(15.05628598 -0.03192264626 0.005256693018)
(15.05706406 -0.03942043119 0.005287907832)
(15.0581387 -0.04826127343 0.00525119916)
(15.05992896 -0.05856681174 0.005129815054)
(15.06286645 -0.0704522434 0.004903441296)
(15.06778885 -0.08376248567 0.004591884206)
(15.07491303 -0.09808404727 0.004190333222)
(15.08438548 -0.1126815072 0.003801731245)
(15.0980391 -0.1262433296 0.003448840949)
(15.11430608 -0.1372764539 0.003403124412)
(15.13218347 -0.1443416836 0.003957853712)
(15.15064 -0.146170721 0.005396394538)
(15.16589542 -0.1417851344 0.007784208173)
(15.17489104 -0.1332398848 0.01055701234)
(15.1741717 -0.122156894 0.013070212)
(15.1677044 -0.110980346 0.01417292862)
(15.15501396 -0.09979840265 0.01190311683)
(15.14146734 -0.08939036103 0.00502900354)
(15.13146136 -0.0770050523 -0.007724584162)
(15.12675673 -0.06142764795 -0.02445343512)
(15.12681718 -0.04007247937 -0.04177478501)
(15.12399954 -0.01880456093 -0.06280538702)
(15.11595084 -0.01015993882 -0.08139783551)
(15.10451013 -0.01011194794 -0.1013866887)
(15.09816711 -0.01716611076 -0.1147633137)
(15.09953218 -0.02657084241 -0.1196067432)
(15.10686212 -0.03959980294 -0.1213549191)
(15.11588761 -0.0530375234 -0.1218911052)
(15.1259199 -0.0662138661 -0.1215939949)
(15.13597934 -0.07572726881 -0.1216539786)
(15.14708902 -0.08654704241 -0.1197083762)
(15.14393209 -0.09171433617 -0.1166960547)
(15.19000384 -0.09598417254 -0.1185013996)
(15.08094683 -0.09605533 -0.1016543268)
(15.25977587 -0.09596151493 -0.164621596)
(15.01634158 -6.779994666e-05 0.006039099296)
(15.02176201 -8.477471588e-05 0.005928155992)
(15.02554858 -0.0002218768956 0.009891305399)
(15.03276185 -0.0003888497659 0.007094588232)
(15.03814113 -0.000787116137 0.003831687296)
(15.03996995 -0.001181309954 0.00143262)
(15.04250121 -0.002128002129 -0.0006280329863)
(15.04307977 -0.002839689751 0.0002480825639)
(15.04466261 -0.004223160882 0.002250885395)
(15.04653998 -0.005671444656 0.003541427106)
(15.04826736 -0.007752562423 0.004343118164)
(15.04953905 -0.01042853481 0.0047232847)
(15.05020258 -0.01377939427 0.00489620637)
(15.05034698 -0.01793653776 0.005012804104)
(15.05010149 -0.02306664041 0.005089751392)
(15.04957259 -0.02936243026 0.005125503871)
(15.04896309 -0.03703453702 0.00505700762)
(15.04839432 -0.04629238319 0.004884884011)
(15.04873745 -0.0574516556 0.004496055717)
(15.0501667 -0.07066691502 0.003953146429)
(15.05341429 -0.08582108096 0.003173929539)
(15.05971751 -0.10246138 0.002192487679)
(15.06958585 -0.119986966 0.0009656424891)
(15.08448516 -0.136973578 -0.0002561396849)
(15.10524119 -0.1509488118 -0.001418144583)
(15.12856394 -0.1591438133 -0.001553659059)
(15.1519852 -0.1590012779 -0.0002093972887)
(15.17230791 -0.1498659259 0.002812631367)
(15.18421884 -0.1325054615 0.007177005504)
(15.18503081 -0.1150203558 0.01062134757)
(15.17808792 -0.09854737433 0.01230259926)
(15.16901562 -0.08840270983 0.01090121518)
(15.16328387 -0.08263831355 0.003919188311)
(15.16563434 -0.08015806922 -0.004919755804)
(15.17314573 -0.07736259189 -0.01279970024)
(15.17143659 -0.06038481032 -0.01485580121)
(15.14821504 -0.03106185122 -0.0284177118)
(15.11520623 -0.00200556738 -0.05013827104)
(15.09132682 0.01577206962 -0.07639379902)
(15.07987698 0.01679156932 -0.09217194095)
(15.07961359 0.01032221965 -0.09791646296)
(15.08520696 -0.001322211749 -0.1005223645)
(15.09528803 -0.01451165895 -0.1015938175)
(15.10841055 -0.0285462167 -0.1012212621)
(15.1210376 -0.03942998908 -0.1002019998)
(15.13850771 -0.05376379538 -0.09582828456)
(15.13812151 -0.0593576656 -0.09233025701)
(15.18687996 -0.06561084353 -0.09243197573)
(15.07889556 -0.0667919895 -0.07648183029)
(15.25377401 -0.06733660252 -0.1410567028)
(15.01634365 -0.0001513733255 0.006044278926)
(15.02166382 -0.0002410834475 0.005927178375)
(15.02543108 -0.0005137532429 0.009904865954)
(15.03237242 -0.0007742087654 0.007132455456)
(15.03769112 -0.001315843109 0.00380393495)
(15.03916821 -0.001783851871 0.001455688667)
(15.04156095 -0.002909539275 -0.0006725207856)
(15.04172026 -0.003610971114 0.0001980485125)
(15.04298137 -0.005098058439 0.002238160318)
(15.04444009 -0.006563853373 0.003498078541)
(15.04565741 -0.008641239929 0.004306462244)
(15.04632795 -0.01128369972 0.004679399634)
(15.04626759 -0.01457473238 0.004847637904)
(15.04552782 -0.01865756605 0.004942384839)
(15.0442019 -0.02371408656 0.004987983317)
(15.04238114 -0.02998059022 0.004940431181)
(15.04018706 -0.03768834507 0.004765260977)
(15.03789217 -0.04718947997 0.004353734526)
(15.03640583 -0.05896713027 0.003675426108)
(15.03538761 -0.07319862863 0.002648167217)
(15.03665789 -0.08986619631 0.001209341032)
(15.04113301 -0.1088304656 -0.0008550744134)
(15.05168475 -0.1295415997 -0.003514968254)
(15.0678557 -0.1506727452 -0.006607426324)
(15.09277286 -0.1696079954 -0.009485077534)
(15.12618239 -0.1826218708 -0.01126555153)
(15.16186386 -0.186777855 -0.01017416442)
(15.19441068 -0.1782324341 -0.004562743352)
(15.21101395 -0.1603439962 0.002920085737)
(15.20940523 -0.1394929285 0.008909091048)
(15.19420153 -0.118763168 0.01189088634)
(15.16888871 -0.09841599631 0.01017428349)
(15.15259537 -0.08373106873 0.004242371608)
(15.1352493 -0.06536158299 -0.01245669533)
(15.15918194 -0.06182652331 -0.01922410506)
(15.16925392 -0.00295041192 -0.02615895544)
(15.18031154 0.02924947592 -0.02776533785)
(15.1525958 0.03333696963 -0.04089215571)
(15.11698792 0.03661223818 -0.06594301318)
(15.09147938 0.03285532226 -0.09210471652)
(15.08180713 0.0209014012 -0.1072379247)
(15.08333744 0.004650434614 -0.1164715594)
(15.09134911 -0.01133901747 -0.1226829436)
(15.10369687 -0.02669725099 -0.1268432957)
(15.1160796 -0.03725098239 -0.1299768312)
(15.13198222 -0.05104537627 -0.1283971767)
(15.13396909 -0.0554625508 -0.1264476828)
(15.18339902 -0.06111799402 -0.1257217401)
(15.0830595 -0.05801817976 -0.1099311724)
(15.26324398 -0.05759644246 -0.1716395928)
(15.01634326 -0.0001334327401 0.00604007833)
(15.02165468 -0.0002059075418 0.00592252092)
(15.02533524 -0.0003993617649 0.009907576761)
(15.03229039 -0.0005983013994 0.007106613146)
(15.03740356 -0.0009902047897 0.003794102447)
(15.03883383 -0.00135478405 0.00139721925)
(15.0409575 -0.002227059755 -0.0007215895516)
(15.04090308 -0.002751841794 0.0001482723811)
(15.04189809 -0.003975722503 0.002225195666)
(15.04296426 -0.005145713301 0.003445893351)
(15.04372216 -0.00685980156 0.004243337514)
(15.04383002 -0.009082373923 0.004621550288)
(15.04306616 -0.01190267686 0.004789627603)
(15.04145261 -0.01546923694 0.004869062424)
(15.03901826 -0.01997045216 0.004874726481)
(15.03588756 -0.02566771904 0.004757153455)
(15.03187002 -0.03283021522 0.004429909312)
(15.02801391 -0.0418744526 0.003773689725)
(15.02387129 -0.05352458555 0.002681000433)