/*--------------------------------*- C++ -*----------------------------------*\
| =========                 |                                                 |
| \\      /  F ield         | OpenFOAM: The Open Source CFD Toolbox           |
|  \\    /   O peration     | Version:  2.2.1                                 |
|   \\  /    A nd           | Web:      www.OpenFOAM.org                      |
|    \\/     M anipulation  |                                                 |
\*---------------------------------------------------------------------------*/
FoamFile
{
    version     2.0;
    format      ascii;
    class       volScalarField;
    location    "3";
    object      epsilon;
}
// * * * * * * * * * * * * * * * * * * * * * * * * * * * * * * * * * * * * * //

dimensions      [0 2 -3 0 0 0 0];

internalField   nonuniform List<scalar> 
86889
(
0.1173506064
0.04959745145
0.02658825158
0.01742956641
0.01356968938
0.01219185519
0.01217454192
0.01297399401
0.01427994922
0.01588345143
0.01762101868
0.01938324827
0.02112839541
0.02287131349
0.02465997659
0.02652858179
0.02840676156
0.03008401096
0.03140812168
0.03244699821
0.03344656589
0.03476860119
0.03653543178
0.03865945185
0.04094212839
0.04324309022
0.04546697213
0.0475212378
0.04933929911
0.05088928323
0.05244568726
0.05468358552
0.05794415801
0.06113083585
0.0606298976
0.05960333884
0.05855647283
0.05753901267
0.05665880068
0.05593867671
0.05571380065
0.05573319904
0.05582523621
0.05593688678
0.05605400833
0.05615784092
0.05633529883
0.05617908415
0.05921265106
0.1800586006
0.1106576681
0.05025757235
0.02634586701
0.01615475915
0.01146975818
0.009332731013
0.008543329701
0.008554655745
0.009078299286
0.009929383114
0.01097539465
0.01212873801
0.01334548233
0.01461528567
0.01594549075
0.01733664242
0.01873602858
0.02001375849
0.0210665557
0.02192090424
0.02273219842
0.02367142326
0.02482010649
0.02613141207
0.02752510884
0.0289505546
0.03037830021
0.03176671764
0.03304616074
0.03417577849
0.03512243147
0.03590958228
0.03656819048
0.0370016551
0.03702113776
0.03699184447
0.03656668489
0.03607676202
0.03565603855
0.03533411102
0.03528764375
0.03552335907
0.03582773507
0.03615442364
0.03648678128
0.03679273851
0.03711871501
0.03705233051
0.03862476281
0.1248275378
0.1096058313
0.0515771568
0.02582588526
0.01520390989
0.01009823221
0.007672906072
0.00677942003
0.006709874752
0.007104710589
0.007777247959
0.008618884451
0.009560683473
0.01056041245
0.01160146652
0.01268710145
0.01382188112
0.01498883997
0.0161434887
0.01724331329
0.01829862279
0.01937800096
0.02056873238
0.02192102802
0.02340478646
0.0249386688
0.02645498359
0.02791539191
0.02928872031
0.03053594614
0.03161330534
0.03250367451
0.03320248933
0.03372604419
0.03399788777
0.0339505359
0.03385625027
0.03336546492
0.03286511259
0.0324388198
0.03210236358
0.03187248667
0.03192213721
0.03206268688
0.03224731578
0.0324592508
0.03266627711
0.03299354062
0.03311338913
0.03341895782
0.1177874667
0.1094092074
0.05122825091
0.02488416476
0.01446338633
0.00947794978
0.006946324985
0.005886237001
0.005694298077
0.00598059275
0.006545704
0.00728324992
0.008132340963
0.009055716875
0.01002970004
0.01104805371
0.01211519641
0.01322571681
0.01434590097
0.0154319595
0.01647194182
0.01751498663
0.01863957434
0.01988387757
0.02121031851
0.02255143304
0.02386381704
0.02513058922
0.02632815377
0.02742072331
0.02836514614
0.02914076735
0.02973830897
0.03015720268
0.03028091822
0.03023941849
0.03010732368
0.02980408795
0.02950700558
0.02926849946
0.02908924723
0.02895332666
0.02888798625
0.02888952707
0.0289354904
0.02901635764
0.02910339286
0.02935636509
0.02966856017
0.03062075643
0.1158481132
0.1094045398
0.05114040105
0.02478990808
0.01429766475
0.009258520142
0.006726007858
0.005557011542
0.005258671103
0.005434765461
0.00588599843
0.006509651177
0.007249651081
0.00806836653
0.008948368916
0.009888339714
0.010893125
0.01195453147
0.01303985879
0.01410824094
0.01514984637
0.01620560859
0.01733927339
0.01857773349
0.01987922072
0.02117860185
0.0224401557
0.02364967872
0.02478897663
0.02582457556
0.02671586908
0.02743693051
0.02798439287
0.028348692
0.02848428042
0.02846157928
0.02837250034
0.02821787063
0.02805661737
0.02791830429
0.0278088572
0.02772885887
0.02767449426
0.02764010572
0.02762373219
0.02763061253
0.02768418508
0.02795496907
0.02847005794
0.02949874481
0.1151425309
0.1094039669
0.05111852985
0.02477079284
0.01427255953
0.009164435534
0.006608763196
0.005409545404
0.005073850754
0.005209170826
0.005618612694
0.006200330548
0.006898613665
0.007679865941
0.008524988201
0.009431429215
0.01040574018
0.01144310664
0.01251163109
0.01356699956
0.01459466145
0.0156345617
0.01674825131
0.01795315235
0.0192052763
0.02044989872
0.02165511437
0.02281281407
0.02390059749
0.02488159293
0.025721246
0.02640336153
0.02692264117
0.02726362681
0.02741299693
0.02741707579
0.02736510847
0.02727429068
0.02717486137
0.02708508028
0.02700955688
0.02690218518
0.02678356812
0.02675883901
0.02676530425
0.02680220839
0.02692845446
0.02719243691
0.02781986261
0.0288133368
0.11458071
0.1094033269
0.05111353043
0.02476631573
0.01426556832
0.009154792768
0.006573317358
0.005347197649
0.004992845547
0.005103131878
0.005485020934
0.006038081957
0.006707598212
0.007459597683
0.008276111185
0.009155479711
0.01010356831
0.01111531223
0.01216135905
0.01320035601
0.01421736633
0.0152498929
0.01635695423
0.01755230762
0.01878883479
0.02001556416
0.02120252208
0.02233986038
0.02341288842
0.02438733205
0.02522451403
0.02591077751
0.02643978791
0.02678602901
0.02694754731
0.02698705983
0.02696852431
0.02691260214
0.02684567541
0.02678285736
0.02672877701
0.02658968491
0.02640736763
0.02635647249
0.02638469024
0.02645954854
0.02663127315
0.02693386728
0.02759280422
0.02842523378
0.1141830056
0.1094026826
0.05111241568
0.02476553417
0.01426423726
0.009152824493
0.006570770809
0.005322298653
0.004950645211
0.00504883048
0.005417932198
0.00595746909
0.006613582487
0.007352904008
0.008156960561
0.009023663135
0.009959914403
0.0109619594
0.01199983996
0.01303059079
0.0140394522
0.01506522633
0.0161644913
0.01734434645
0.01855873953
0.0197612398
0.02092448035
0.02203956441
0.02309852039
0.02407631035
0.02492733387
0.02562903966
0.02616925507
0.02652376244
0.02668850745
0.02675429152
0.02676469795
0.02674086108
0.02670150326
0.02665808907
0.02661758808
0.02648851186
0.02631319931
0.02623614162
0.02627598406
0.02636338363
0.02654933137
0.02686451068
0.02753534415
0.0283250915
0.1141087243
0.1094020148
0.05111166093
0.02476483172
0.014263419
0.009151872274
0.006569700709
0.005320366605
0.004936201968
0.005020570898
0.005380076803
0.005908748272
0.006553045584
0.007280184003
0.008072393441
0.0089274101
0.009851388024
0.01084088681
0.0118674578
0.01288833634
0.01388708985
0.01490184642
0.01598902827
0.01715308347
0.01834967831
0.01953934263
0.02069275883
0.02179736122
0.02285368561
0.02383779321
0.0247022018
0.02542041738
0.02597140217
0.02632643272
0.02649211163
0.02658505542
0.02661543271
0.02660927169
0.02658239873
0.02654794803
0.02651313775
0.02638757422
0.02621317235
0.02616497714
0.0261873367
0.02627772076
0.02646911173
0.02678847601
0.02746193006
0.02794412207
0.1135820455
0.1094013527
0.05111117095
0.02476453616
0.01426321032
0.009151688579
0.006569495375
0.005318824753
0.004933467105
0.005005155416
0.005360327132
0.005884278252
0.006524264771
0.007247374591
0.008035445647
0.008886158784
0.009805849311
0.01079115273
0.01181333722
0.01282858774
0.01382052943
0.01482833761
0.0159061131
0.01705568902
0.01823770063
0.01942162939
0.02058157369
0.02168831379
0.02273582569
0.02370459645
0.02456069141
0.0252732408
0.02581774389
0.0261639814
0.02634538292
0.02645949884
0.02650923962
0.02652247723
0.02650953384
0.02648374513
0.02645676049
0.02634565682
0.02624804242
0.02623271858
0.02622970796
0.02632542113
0.02651435429
0.02683247255
0.02750668465
0.02805060372
0.1137548639
0.1094006912
0.05111064983
0.0247641116
0.0142628335
0.009151324708
0.00656913926
0.005318198
0.004932691974
0.005004525763
0.00535941968
0.00588261699
0.006521551602
0.007243348969
0.008029720582
0.008877939603
0.0097937778
0.01077392836
0.0117906088
0.01280021486
0.01378505759
0.01478398011
0.01584875237
0.0169792254
0.01814899181
0.01937114529
0.02059747991
0.02174221319
0.0227565707
0.02369290424
0.02453177594
0.02524175751
0.02578815221
0.02613754694
0.02634679907
0.02649337056
0.0265375808
0.02649546993
0.02645434047
0.0264353899
0.02640983691
0.02635741279
0.02633481078
0.02631936088
0.02631314324
0.02640320815
0.02657346855
0.02687357073
0.02752947237
0.02761380366
0.1130885289
0.1094001018
0.05111019755
0.02476381401
0.01426260816
0.009151124625
0.006568942192
0.005317303887
0.004931233979
0.005002890991
0.005357447379
0.005880361378
0.006519120816
0.007240787049
0.008026872363
0.008874337358
0.009788454972
0.01076522917
0.01177779873
0.01278322214
0.01376117157
0.01474663213
0.01578735067
0.01689055161
0.01809388867
0.01937975395
0.02065566547
0.02183433418
0.02287853609
0.02377325096
0.02457220244
0.02525037795
0.02575389089
0.02610471507
0.02642632354
0.02671420224
0.02683714929
0.02678968751
0.02655099515
0.02654988054
0.02656287649
0.02658136295
0.02658397603
0.02658757947
0.02659763337
0.0266846834
0.02684898815
0.02714739922
0.02780551295
0.02845875855
0.1145094076
0.109399543
0.05110979492
0.02476351873
0.01426236174
0.009150894937
0.006568718965
0.00531684739
0.004930535066
0.005002322571
0.005356769093
0.005879327445
0.006517457179
0.007238213546
0.008022951816
0.008868438879
0.009779174005
0.01075067722
0.01175830212
0.01275831678
0.01372442772
0.01468490809
0.01568842318
0.01679936141
0.01808111052
0.01941633996
0.02072156779
0.0219424822
0.0230150936
0.02394398633
0.02475249945
0.02548430467
0.02605374176
0.02646644623
0.02691239979
0.02747575542
0.02683533084
0.02646028494
0.02619279794
0.02601559161
0.02607990296
0.02615673218
0.02621399676
0.02625787446
0.02629460831
0.02641830639
0.02661790701
0.02694008543
0.02761095002
0.02734626661
0.1129556061
0.1093990754
0.05110943937
0.02476327754
0.01426217793
0.009150735821
0.006568558752
0.005316354663
0.004929819435
0.005001684114
0.005355942198
0.00587827365
0.006516059145
0.00723626597
0.008020204745
0.008864341365
0.009772030766
0.01073942988
0.01174271674
0.0127368414
0.01368708265
0.0146119356
0.01557757084
0.01675801145
0.01808980122
0.01946031841
0.02078623316
0.02202790549
0.02311538845
0.02406801729
0.02487271477
0.02552619254
0.02609101412
0.02670830676
0.02750060857
0.02850178256
0.02929261483
0.02908315855
0.02861124473
0.02831117189
0.02823940258
0.02816858326
0.02802747394
0.02785313199
0.02775105229
0.02771817459
0.02777527094
0.02796745544
0.02851347697
0.02872605257
0.1137380393
0.109398679
0.05110912143
0.02476304231
0.01426198996
0.009150574918
0.006568403018
0.005316037436
0.004929454249
0.005001556956
0.005355728898
0.005877783977
0.006515018696
0.007234524855
0.008017493199
0.008859617377
0.009763531529
0.01072602396
0.01172180227
0.01270594002
0.01363604019
0.01451875003
0.01551308929
0.01674607042
0.01810467447
0.0194988637
0.02086597973
0.02216324142
0.02321717098
0.02424310319
0.02500120725
0.02596352789
0.0267640275
0.02742166174
0.02832931304
0.02909206473
0.03118795301
0.03610089185
0.04774223283
0.04782615701
0.04612618413
0.04409934817
0.04233512634
0.04052751215
0.03869115605
0.03699498497
0.03554565801
0.03447136643
0.03389559091
0.03494837221
0.119645453
0.1093983927
0.05110888919
0.02476287751
0.01426186256
0.009150474107
0.00656830109
0.00531578475
0.004929229284
0.005001464428
0.005355814143
0.005877675666
0.006514567273
0.00723357109
0.008015695458
0.008856207985
0.009757005152
0.01071543483
0.01170084056
0.01267026445
0.01358186907
0.01442127719
0.01546995443
0.01673501415
0.0181106673
0.0195340336
0.02096926401
0.02244794839
0.02286811706
0.02412183197
0.02397305446
0.02459970784
0.02546771694
0.02629923818
0.02719202826
0.02829687793
0.02939572831
0.02969549005
0.02970099158
0.03050755935
0.03094636241
0.0308836304
0.03062418387
0.03029164286
0.02986572969
0.02964456506
0.02951443856
0.02954036266
0.02995429678
0.03115311667
0.1167515069
0.1093982116
0.05110874137
0.0247627694
0.0142617771
0.009150403094
0.006568233188
0.00531565331
0.004929252111
0.005001430467
0.005356332739
0.005878266614
0.006515070242
0.007233838525
0.00801528296
0.008854427413
0.009752289343
0.01070749001
0.01168446285
0.01264115787
0.01353748169
0.0143554165
0.0154382671
0.01667758323
0.01807052079
0.01959826526
0.02128466481
0.02297727138
0.02425493823
0.02534869399
0.02582383308
0.02700028582
0.02966394001
0.03240343039
0.03280609878
0.03279854752
0.03203260963
0.03148845508
0.03116775689
0.03196639464
0.03276094081
0.03299989905
0.03264431028
0.03172413756
0.03075934995
0.03028385968
0.02996556667
0.02984720457
0.03016154885
0.03030806166
0.1162481369
0.1093981505
0.05110869658
0.02476273873
0.01426175309
0.009150384275
0.006568213177
0.005315624672
0.004929286634
0.005001375785
0.00535653948
0.005878573898
0.006515419281
0.00723425155
0.008015508651
0.008854346241
0.009750723018
0.01070376225
0.01167564139
0.01262691356
0.01350337328
0.01432239199
0.01541544593
0.01662835237
0.01802018447
0.01961038128
0.0212329995
0.02298143524
0.02484870354
0.02586271961
0.03844179058
0.04305202801
0.05027729828
0.05727770678
0.05534220881
0.05267942415
0.0503428092
0.0471478082
0.04431381371
0.04192338412
0.04157652821
0.04157692998
0.04115293904
0.04045579564
0.03958536829
0.03891608211
0.03822112203
0.03764712076
0.0369351553
0.03712182971
0.1201593976
0.1093982054
0.05110875649
0.02476278158
0.01426178521
0.00915041024
0.006568239846
0.005315652856
0.004929168454
0.005001403881
0.005356112943
0.005878000915
0.006514766027
0.007233484846
0.00801493197
0.008854168673
0.009752246467
0.01070766129
0.01168488114
0.01264181718
0.0135376288
0.01435538141
0.01543834937
0.01667922812
0.0180720484
0.01959966241
0.02128647069
0.02297861464
0.02425802859
0.02592199621
0.02934601278
0.03955731226
0.05939853899
0.08154327943
0.0734615289
0.06697835392
0.06754232821
0.05881358705
0.05345429861
0.04920911477
0.04562714717
0.04279163563
0.0405869476
0.03824354821
0.03596457608
0.03435695799
0.03311920879
0.03224538615
0.0319517595
0.03198287485
0.1147593592
0.1093983806
0.05110890666
0.0247628941
0.01426187405
0.009150484114
0.006568312403
0.005315805182
0.004929200208
0.00500143129
0.005355676911
0.005877563922
0.006514499783
0.007233542164
0.008015691013
0.008856208609
0.009757019554
0.01071545403
0.01170095704
0.01267047616
0.01358166443
0.01442140755
0.01547021176
0.01673544558
0.01811089986
0.01953250076
0.02096612678
0.02244689992
0.02287166043
0.02418734829
0.03028281559
0.04961884475
0.0892263428
0.2103977391
0.1695055215
0.1392371396
0.1263419457
0.1026945577
0.08473698694
0.0722544976
0.06308100501
0.05554125678
0.04961639874
0.04486366457
0.04100322848
0.03796806056
0.0355894187
0.03378218838
0.03272352174
0.03241753596
0.1088191296
0.1093986665
0.05110913332
0.02476305651
0.0142620066
0.009150594551
0.006568422558
0.005316061557
0.004929453444
0.005001489009
0.005355654318
0.005877780417
0.006515077602
0.00723461954
0.008017593014
0.008859722401
0.0097636517
0.01072618506
0.01172209799
0.01270610236
0.01363564589
0.01451907343
0.01551359306
0.01674661516
0.01810460691
0.01949580816
0.02086003943
0.0221594874
0.02322174931
0.02579640168
0.03470826887
0.05790012094
0.1104186487
0.3453135297
0.04384450509
0.04359960656
0.05580516878
0.05524267107
0.05928714707
0.0577571778
0.05461123894
0.0517135945
0.04911581883
0.04675437321
0.04457165717
0.04259095374
0.04082359893
0.03935578348
0.03845468675
0.03835231503
0.1169587217
0.1093990533
0.05110944557
0.02476328739
0.01426219052
0.009150748333
0.006568575817
0.005316396436
0.004929863459
0.005001698744
0.005356017007
0.005878370224
0.006516161586
0.007236403229
0.008020389947
0.008864550509
0.009772243426
0.0107396637
0.01174291383
0.01273679489
0.0136866803
0.01461231451
0.01557871839
0.01675893733
0.01809072682
0.0194640985
0.02078381227
0.0220264101
0.02311880141
0.02520549574
0.03219266731
0.05133692309
0.0901282208
0.2106810699
0.17005849
0.139087246
0.118744345
0.09661377149
0.07859278524
0.06636977232
0.05830430313
0.05201566127
0.04730143344
0.04350182316
0.04040625899
0.03793563161
0.03597910871
0.03462304025
0.03359333475
0.03351143852
0.1131466386
0.1093995207
0.05110979041
0.02476351979
0.01426236928
0.009150907345
0.006568736031
0.005316874878
0.004930602516
0.00500234634
0.005356823726
0.005879406944
0.006517556214
0.007238344381
0.008023121466
0.00886862909
0.009779389269
0.01075099106
0.01175860038
0.01275818477
0.01372421976
0.01468572398
0.01569016884
0.01680089319
0.01808620268
0.01943690081
0.0207362695
0.02195523959
0.02303026061
0.02464254569
0.02875533798
0.03938680847
0.05899054861
0.08036160913
0.07248644295
0.0650093146
0.05913898714
0.0524564384
0.0471324411
0.04301689888
0.04006787891
0.03766544384
0.03565216711
0.03396759389
0.03256323881
0.03147866842
0.03066636505
0.03013761527
0.03010983865
0.02981273105
0.1131789582
0.1094000655
0.05111017679
0.0247638027
0.01426260236
0.009151130713
0.006568957558
0.005317377184
0.004931382462
0.005003039125
0.00535765429
0.005880612877
0.006519403313
0.007241099426
0.008027206361
0.008874669592
0.009788808743
0.01076565948
0.01177812977
0.01278300543
0.01376065521
0.01474726324
0.01578989467
0.01689699221
0.01810616768
0.01940978691
0.02068260543
0.0218581069
0.02290140793
0.02401584017
0.02595631016
0.03042199737
0.03828758819
0.0455820865
0.04334578875
0.04102805227
0.03899224998
0.03671831254
0.03466602246
0.03322726911
0.03203412841
0.03102790316
0.03015756954
0.02942066615
0.02880494593
0.0284015543
0.02816447174
0.0281226579
0.02849430242
0.02828911378
0.1126415569
0.1094006547
0.05111061861
0.02476409478
0.01426282792
0.009151330558
0.006569154158
0.005318232588
0.004932754767
0.005004559443
0.005359489266
0.005882704767
0.006521629177
0.007243411573
0.008029767664
0.008877988484
0.009793908989
0.01077420981
0.01179080899
0.01279984339
0.01378435059
0.01478424097
0.01585094114
0.01698380621
0.01815680156
0.01938557199
0.02061282268
0.02175624269
0.02276999183
0.02374985532
0.02485177791
0.02659649883
0.0293526937
0.03188112994
0.03143509075
0.03090046554
0.03035643258
0.02974786869
0.0292075084
0.02875961181
0.02836292044
0.02798690912
0.02768814878
0.02743755367
0.02723301037
0.02715020733
0.02717590692
0.02735672835
0.02791738104
0.02816116025
0.1134682983
0.1094013052
0.05111113681
0.02476451412
0.01426320495
0.009151690584
0.00656950786
0.00531891499
0.004933630413
0.005005314938
0.005360555033
0.005884574151
0.006524617962
0.007247790076
0.008035922585
0.008886703934
0.009806518242
0.01079196578
0.01181402793
0.0128286667
0.01382013795
0.01482865067
0.01590782687
0.01705752817
0.01823867905
0.01942150752
0.02058218207
0.02168879864
0.02273615999
0.0237126899
0.02461399682
0.0255089464
0.02653172986
0.0274038652
0.02745430629
0.02742928409
0.02733990864
0.02722219091
0.02709001183
0.02696191729
0.02684381159
0.02665344052
0.02648921114
0.02641912821
0.0263709271
0.02643140186
0.0265916496
0.02688815624
0.02754442931
0.02805056392
0.1136236979
0.1094019649
0.05111160612
0.02476480166
0.01426341417
0.009151889212
0.006569732594
0.005320454885
0.004936271834
0.005020624675
0.005380188327
0.005908874657
0.006553131195
0.007280204646
0.008072328211
0.008927290229
0.009851336666
0.01084097835
0.01186741882
0.0128876753
0.01388598557
0.01490156175
0.01599038077
0.01715505709
0.0183512484
0.01954024039
0.02069321809
0.02179789229
0.02285428003
0.02383968174
0.02470865475
0.02544746029
0.02607308124
0.02653484992
0.02668860717
0.02675994139
0.02676963396
0.02674493327
0.02670189776
0.02665325253
0.02660587914
0.0264691428
0.02628544572
0.02623068791
0.02624917081
0.02633340782
0.02652063718
0.02683838462
0.02751318306
0.02817386008
0.1138871012
0.1094026222
0.05111232432
0.02476546417
0.01426419031
0.009152798435
0.006570757814
0.005322188146
0.004950523657
0.005048752214
0.0054179525
0.005957586943
0.006613839433
0.007353300111
0.008157453694
0.009024274519
0.009960762309
0.01096308685
0.01200095546
0.01303115002
0.01403935607
0.01506543764
0.0161658395
0.01734572052
0.01855880019
0.01975975304
0.02092158007
0.02203558424
0.02309376192
0.02407180589
0.02492478129
0.0256290374
0.02617774312
0.02653915238
0.02669477851
0.02676260249
0.02677383221
0.02675009844
0.02671104581
0.02666808543
0.02662804571
0.02649971183
0.02632539605
0.02625019272
0.02628947472
0.02637689484
0.0265628325
0.02687839952
0.02755050823
0.0283995182
0.1141964103
0.1094032651
0.05111346544
0.02476627854
0.0142655576
0.009154800214
0.006573327107
0.005347347082
0.004993222263
0.005103689606
0.005486136083
0.006039184975
0.006708443471
0.007460198383
0.008276482628
0.009155678947
0.01010378511
0.0111156299
0.01216137023
0.01319945402
0.01421556306
0.01524832082
0.01635687821
0.01755327097
0.01878929708
0.02001497214
0.02120138333
0.02233901596
0.02341076467
0.02438536829
0.02522268023
0.02591018052
0.02644257101
0.02679314744
0.02695890705
0.02699978114
0.02698279527
0.026928676
0.02686322316
0.02680143731
0.02674809458
0.02660948919
0.0264276826
0.02634731134
0.02637697827
0.02645597633
0.02663133996
0.0269374143
0.02760088218
0.02852005067
0.1142887658
0.1094038958
0.05111837355
0.02477065626
0.01427245196
0.009164330997
0.006608690391
0.005409343273
0.005073532769
0.005208659045
0.005617559244
0.006199601011
0.006898467525
0.007679966191
0.008525217121
0.009431943409
0.01040661961
0.01144412852
0.01251243208
0.01356729225
0.01459448396
0.01563490055
0.01675033023
0.01795673072
0.01920873941
0.02045310494
0.02165798915
0.02281685371
0.02390446919
0.02488492217
0.02572684742
0.02640958957
0.02693028893
0.02727320365
0.02742523912
0.02742934533
0.02737718739
0.02728655399
0.02718753182
0.02709832314
0.0270235663
0.02691735247
0.02679996825
0.02674555327
0.02675329247
0.02679425693
0.02692384048
0.02719066526
0.02782093975
0.02885757238
0.1146182674
0.1094044811
0.05114048772
0.02479000606
0.01429771982
0.009258575582
0.006726097145
0.005557757277
0.00525989426
0.005436227223
0.005887589775
0.006511122993
0.007251059037
0.008069991811
0.008950842222
0.009890941362
0.01089577118
0.01195745154
0.01304292425
0.01411096356
0.01515195295
0.01620785881
0.01734352697
0.01858368677
0.01988565828
0.02118481753
0.02244611065
0.02365750079
0.02479514078
0.02583156809
0.02672261107
0.027444725
0.02799389134
0.02836380568
0.02850561648
0.02848248147
0.0283924401
0.02823735268
0.0280760245
0.02793789519
0.02782892453
0.02774963579
0.02769490512
0.02766013784
0.02764467021
0.02766835625
0.02773263816
0.02800945892
0.02851574988
0.02958733768
0.1152155518
0.1094173846
0.05123181054
0.02488721748
0.01446520498
0.00947907674
0.006947058384
0.005886211254
0.005693841307
0.005979971963
0.00654503009
0.007282691246
0.008131993606
0.009055676841
0.01002912407
0.01104778374
0.01211514073
0.01322600222
0.01434679738
0.01543266401
0.01647201052
0.01751613486
0.0186422858
0.01988832708
0.02121529274
0.0225562738
0.02386863516
0.02513679443
0.02633537136
0.02742599675
0.02836843335
0.02914384389
0.02974499463
0.03016713346
0.03029533263
0.03025408946
0.03012219889
0.02981947115
0.02952304742
0.02928523975
0.02910597692
0.02897007704
0.02891328693
0.02892432668
0.0289828561
0.02907524706
0.0291716239
0.02941585645
0.02971862228
0.03069781624
0.1158632489
0.1096137303
0.05158136937
0.02583021941
0.01520670404
0.01010022194
0.007676369368
0.0067835611
0.006714325369
0.007109700777
0.007782836174
0.008625076465
0.009567539315
0.01056780209
0.01160924132
0.01269488531
0.01383052113
0.014998591
0.01615339505
0.0172520157
0.01830581943
0.01938299722
0.02057445061
0.02192721539
0.02341114058
0.02494377003
0.02645897033
0.0279197444
0.02929569331
0.03054442912
0.03162329088
0.03251715315
0.0332210926
0.03374573795
0.03402118814
0.03397271961
0.03387816447
0.03338618288
0.03288600793
0.03245920464
0.03212232344
0.03190125945
0.03195929682
0.03210863918
0.03230648234
0.03253313041
0.03273959848
0.03308240965
0.03323206131
0.03357288093
0.1178771301
0.110657663
0.05025751025
0.02634530072
0.01615003574
0.01146337459
0.00932690574
0.008537965911
0.008549189525
0.009072465352
0.00992333847
0.01096943681
0.01212301404
0.01333984503
0.01460939295
0.01593907332
0.01733002816
0.01872946037
0.02000834048
0.02106127452
0.02191712116
0.02272972108
0.02367193814
0.02482280451
0.02613410092
0.02752702916
0.0289513202
0.03038093489
0.03177072938
0.03305592065
0.03418568152
0.0351370624
0.03592685765
0.03658961226
0.03702576519
0.03704468635
0.0370151018
0.03658965519
0.03609975528
0.03567848517
0.03535598746
0.03531867599
0.03556322747
0.0358773105
0.0362182133
0.03656563858
0.03688053821
0.03723065817
0.03716726696
0.03873854867
0.1248631062
0.1173505316
0.04959729813
0.0265882106
0.01743031682
0.01357215652
0.01219572208
0.01217861154
0.01297755638
0.01428285563
0.01588561849
0.01762247614
0.01938395771
0.02112808719
0.02286996269
0.02465776687
0.02652637938
0.02840404144
0.03008049934
0.03140000212
0.03243522782
0.03343619827
0.03476560185
0.03653562184
0.03866112096
0.04094523357
0.04324509408
0.04546917702
0.04752254556
0.04933974787
0.05089591213
0.0524496913
0.05468070444
0.0579486003
0.06114111079
0.06065171255
0.05962788597
0.05858343742
0.05756765345
0.05668856849
0.05596921813
0.05575765612
0.05578760245
0.05588895616
0.05600933381
0.05613350761
0.0562368261
0.05641872458
0.05626713708
0.05931840991
0.1800347572
0.1103609045
0.04587604784
0.0216229483
0.01249990832
0.008517512802
0.006748071115
0.006075475488
0.006030710849
0.006385807552
0.007010481553
0.007817953221
0.008745470829
0.009751993063
0.01082080675
0.01195437809
0.01315409584
0.01438729573
0.01556261941
0.01657973866
0.01742167079
0.01817922334
0.01898618584
0.01992393382
0.02099116166
0.02220032398
0.02346408657
0.02467602624
0.02577206422
0.02671829341
0.0277811021
0.02990977708
0.03409473541
0.04101350937
0.0488505858
0.0479622684
0.04538173829
0.04308078158
0.04085357179
0.03892102167
0.03722498692
0.03578148087
0.03457557292
0.03357649008
0.0327514975
0.03207350995
0.03152346817
0.0310955994
0.03104725586
0.03187704477
0.1159201673
0.1003267337
0.04236355104
0.02071876762
0.01103674564
0.006477184588
0.004105580944
0.002768014586
0.00196356008
0.001454702857
0.001120619731
0.0008972007006
0.0007511416981
0.0006683179858
0.0006477957378
0.0006975800197
0.0008310724457
0.001063137504
0.001405154921
0.001860772269
0.002422839241
0.003071663997
0.003775408498
0.004492273418
0.005173466614
0.00577618865
0.006271641985
0.006647367866
0.00690796519
0.007068110492
0.007152021886
0.00718445312
0.00721948489
0.007309839177
0.007443399712
0.007404617825
0.007347881816
0.007295422374
0.007247215897
0.007211856023
0.007190608206
0.007181171287
0.007179436036
0.007181259278
0.007184135944
0.00718606068
0.007186612154
0.007179458612
0.008848411871
0.008697795717
0.0174784566
0.09870644702
0.04169511721
0.02048569044
0.010957002
0.006447515827
0.004090526274
0.002755441429
0.001948686167
0.001435261388
0.00109540391
0.0008656285147
0.0007131212678
0.0006241274751
0.0005977698212
0.0006416906265
0.0007691061554
0.0009959562355
0.001336408904
0.001796608933
0.002369384171
0.00303179253
0.003746547038
0.00446693638
0.005144222774
0.005736266824
0.006214696867
0.006568588353
0.006803328308
0.00693654413
0.006992020826
0.006994566183
0.006964715464
0.00691781095
0.006861528303
0.006799347756
0.006728200633
0.006668564125
0.006619391044
0.006598176948
0.006601081572
0.006616099417
0.006638282228
0.006663542853
0.006689910766
0.006715005838
0.006739937247
0.006764715575
0.008527213213
0.008372111022
0.01285316285
0.09880069418
0.0421621276
0.02081451239
0.01101700072
0.006481763741
0.004107605918
0.002763879789
0.001952571578
0.00143665346
0.001095396631
0.0008647999543
0.0007117753503
0.0006223873522
0.0005955598699
0.0006388088815
0.0007653592809
0.0009912983268
0.001330747663
0.001789797994
0.002361233854
0.003022066098
0.003734690623
0.00445172055
0.005123905946
0.005708930928
0.006178923099
0.006523510353
0.006748684449
0.006872252538
0.006918250214
0.006910949352
0.006870821807
0.00681272819
0.0067439687
0.006667616431
0.006603039505
0.006550269424
0.006508415354
0.006475716626
0.00645162425
0.006442006266
0.006440629796
0.006443602491
0.006449200821
0.006455676808
0.006466135948
0.006789649175
0.009849955577
0.009592864851
0.01380077053
0.09920875883
0.04287530268
0.0208234901
0.01093815534
0.00644756362
0.004087383461
0.002750149937
0.001942433036
0.001428448235
0.00108813057
0.0008578714091
0.0007048529483
0.0006153388927
0.0005884218554
0.0006317026054
0.0007584474826
0.0009848079373
0.001325027178
0.001785210019
0.002357895732
0.003019527869
0.003732000046
0.004447751815
0.005117649776
0.005699623809
0.006165843888
0.006506019734
0.006726111475
0.006844060847
0.006883942553
0.006870844898
0.00682510172
0.006761170293
0.006687554508
0.00661171193
0.006547626236
0.006495534746
0.006454663755
0.006423472666
0.006399874349
0.006382390221
0.006369607226
0.0063626921
0.006360099997
0.006362305385
0.006693899071
0.007214543422
0.01006781848
0.009755136448
0.01385026706
0.09920927959
0.04287343969
0.02082688381
0.01093254268
0.006446695502
0.004078270186
0.002744097277
0.001938082507
0.001425091057
0.001085386199
0.0008555507144
0.000702879625
0.0006137335423
0.0005872585334
0.0006311023735
0.0007586104106
0.00098599349
0.001327403296
0.001788725452
0.002362338148
0.003024577945
0.003737044665
0.004451769997
0.005119254264
0.005697544728
0.006159085549
0.006494199341
0.006709047274
0.006800964103
0.006839225095
0.00689527218
0.006888471193
0.006815993031
0.006730614286
0.006649877259
0.00658088326
0.006524137364
0.006478908817
0.006443703345
0.006416338172
0.006392816119
0.006374543829
0.006360118599
0.006369953969
0.00649270511
0.007084374777
0.007524033362
0.01020162196
0.009871241245
0.01388170907
0.09920878909
0.04287219714
0.02082746198
0.01093163113
0.006445636588
0.004069104713
0.002735762896
0.001932092675
0.001420494254