/*--------------------------------*- C++ -*----------------------------------*\
| =========                 |                                                 |
| \\      /  F ield         | OpenFOAM: The Open Source CFD Toolbox           |
|  \\    /   O peration     | Version:  2.2.1                                 |
|   \\  /    A nd           | Web:      www.OpenFOAM.org                      |
|    \\/     M anipulation  |                                                 |
\*---------------------------------------------------------------------------*/
FoamFile
{
    version     2.0;
    format      ascii;
    class       volScalarField;
    location    "3";
    object      k;
}
// * * * * * * * * * * * * * * * * * * * * * * * * * * * * * * * * * * * * * //

dimensions      [0 2 -2 0 0 0 0];

internalField   nonuniform List<scalar> 
86889
(
0.01361570509
0.008933482585
0.007385377542
0.007156923274
0.007790745842
0.009073094788
0.01083664445
0.01294164466
0.01527144808
0.01772512338
0.0202136809
0.02268185375
0.02512542701
0.02758622977
0.03013519437
0.03283708884
0.03568981449
0.03861199643
0.04158972893
0.04478052688
0.04845401176
0.05290368118
0.05817593974
0.06409439284
0.07034957771
0.07663482476
0.08267318378
0.08822423105
0.09311720198
0.09726241592
0.1008052725
0.1041569132
0.1075320639
0.1103269685
0.1105679517
0.110272144
0.1098400515
0.1093704639
0.1089520165
0.1086109666
0.1085666765
0.1086674285
0.1088110605
0.1089707861
0.1091445469
0.1093292113
0.1095757352
0.1096752324
0.1116965806
0.1772223059
0.01309531114
0.009722190506
0.007202825396
0.006116206631
0.005910406805
0.006321585162
0.007187387708
0.00839317964
0.00984733336
0.01146669585
0.01318079224
0.01494660663
0.01675649721
0.01863390123
0.02062245073
0.02276762547
0.02508399698
0.0275465898
0.03017914097
0.03312496265
0.03661642293
0.04084659484
0.04585879379
0.05151085015
0.05755740327
0.06372544896
0.06974762123
0.07537811914
0.08040799609
0.08471601691
0.08825144467
0.09105458902
0.0932075364
0.09474067782
0.09562735247
0.09624977383
0.09644086591
0.09657487592
0.09672917279
0.09692746247
0.09731031544
0.09788231838
0.09848113967
0.09907291247
0.09964725604
0.1001825211
0.1007104882
0.1009370596
0.1020613247
0.1558298092
0.01300593598
0.01050152891
0.007002783106
0.005417910486
0.004707860499
0.004691858324
0.005304699944
0.006296371917
0.007511611712
0.008863314585
0.01029895259
0.01178747972
0.01331859321
0.01490834511
0.01659903432
0.01844800256
0.0205135187
0.02285385231
0.02554952795
0.0287297364
0.032548042
0.03711681019
0.04243870547
0.04836926863
0.05465333515
0.0610019972
0.06714104157
0.07283277924
0.07789140592
0.08219741039
0.08571476974
0.0884711912
0.09054540616
0.09198702643
0.09284545878
0.09343968824
0.09359627572
0.0937127566
0.09384587017
0.09401607309
0.09424743086
0.09467214807
0.09514422463
0.09562803744
0.09611112732
0.09657009317
0.09709546136
0.09752919479
0.09800311683
0.1512570477
0.01298775839
0.01028593934
0.006645148204
0.00505841163
0.004322693809
0.004104141782
0.004497687887
0.005351423872
0.006468209147
0.007740236132
0.009110824369
0.01055202884
0.01205523552
0.01362916186
0.01530916355
0.01715578448
0.0192401278
0.02163030618
0.02440500612
0.02767604797
0.03158505601
0.03624197438
0.04164210438
0.04763214458
0.05396086638
0.06035055937
0.06653686159
0.07228153657
0.07739507411
0.0817525282
0.08531207846
0.08809677009
0.09017550984
0.09156812252
0.09246448547
0.09303144396
0.09328805488
0.09344130079
0.09356712151
0.09369068088
0.09381863127
0.0939803016
0.09417689226
0.09439295902
0.09462300728
0.09484707246
0.09519621133
0.09572620993
0.09663376858
0.1501553278
0.01298741318
0.01023147974
0.006596728008
0.004975848262
0.004189556143
0.003937604205
0.004196195312
0.004935841638
0.00594587268
0.00711492624
0.008387507347
0.009738639982
0.0111584966
0.01266214529
0.01429138299
0.0161096905
0.01818808666
0.0205969583
0.02341789848
0.02676427088
0.03077036387
0.03553284808
0.04103513028
0.04711600799
0.05352182861
0.05997806266
0.06622081312
0.0720143119
0.07716888918
0.0815600195
0.08514104557
0.0879389743
0.09001696811
0.09143909417
0.09236194711
0.0929514532
0.09328991903
0.09348885886
0.09361840567
0.09371441408
0.09379944302
0.09388148057
0.09396349366
0.09404789027
0.09414200654
0.09428062504
0.09461504102
0.09528354906
0.09619970107
0.1498612201
0.0129873076
0.01021824019
0.006584398505
0.004959562449
0.004133346752
0.003848816815
0.004058742437
0.004750643455
0.005714472756
0.00683970097
0.008070650958
0.009382089009
0.01076775531
0.01224112357
0.01384348925
0.01564125862
0.01770991235
0.02012123655
0.02295383636
0.02631716917
0.03034516691
0.03513274777
0.04065446446
0.0467451278
0.05315717678
0.05961741504
0.06586609098
0.07166336872
0.07681719712
0.08120233597
0.08478070776
0.08758698925
0.08967529338
0.09112701659
0.09208215165
0.09270242976
0.0930805024
0.09330467994
0.09344079001
0.09352838988
0.09355332967
0.09354155143
0.09358669271
0.09364593069
0.09373094533
0.09391199536
0.09424620374
0.09500558412
0.09588524362
0.1495836537
0.01298724178
0.01021565362
0.00658154969
0.004955182166
0.004126866917
0.003822979855
0.004001854641
0.004666293264
0.005597272925
0.006687972504
0.00788392672
0.009160782975
0.01051190394
0.01195204715
0.01352378641
0.01529359757
0.01733774466
0.01973148201
0.02255701058
0.02592389346
0.02996376852
0.03476853637
0.04030819288
0.04641328343
0.05283772057
0.05930893095
0.06556499725
0.07137150169
0.07653520124
0.08093813983
0.08453756411
0.08737323483
0.08948642034
0.09096344127
0.09195526932
0.09260541621
0.09300883504
0.093252243
0.09339853251
0.09349031485
0.09347429514
0.09339258845
0.09339615282
0.09345482659
0.09356071434
0.09377358084
0.09413284533
0.0949129475
0.09567037908
0.1493538451
0.0129871843
0.01021513425
0.006580948832
0.004954218482
0.004125395126
0.003820932214
0.003978698932
0.004619913732
0.005531609413
0.006602696587
0.007778566812
0.009035738949
0.01036820755
0.01179034842
0.0133446624
0.0150992002
0.01713212548
0.01951875146
0.02234035736
0.02570704095
0.02975151996
0.03456294896
0.04010459136
0.04620654196
0.05262532241
0.05908989182
0.06533866745
0.07113617792
0.07630995698
0.0807437045
0.08437633768
0.08723819937
0.08937052381
0.09086010629
0.09187701902
0.09254850502
0.0929728549
0.09323132965
0.09338554026
0.0934811979
0.09346605098
0.09338266735
0.09335737253
0.09341751121
0.09352783052
0.09374924382
0.09411703246
0.09490872902
0.09563901539
0.1493347382
0.01298712513
0.01021501865
0.006580778228
0.004953948598
0.004124991458
0.003820374525
0.003977143793
0.004604427378
0.005497173379
0.006553578145
0.007713416834
0.008953574986
0.01026875708
0.01167419461
0.01321242934
0.01495116471
0.01696945487
0.01934473858
0.02215916203
0.02552179934
0.02956483343
0.03437681746
0.03991484714
0.04601239421
0.05243461516
0.05890660911
0.06516141912
0.07096402703
0.07616182456
0.08062305968
0.08428268874
0.08716283322
0.08930188461
0.09079103843
0.09182188294
0.09249905771
0.09292763495
0.0931871633
0.09334113326
0.09343402554
0.09341478235
0.09332495417
0.09331662496
0.09335531562
0.09346121327
0.09368295253
0.0940514303
0.09484538586
0.09536894871
0.1489875913
0.01298706701
0.01021492363
0.006580700241
0.004953872799
0.004124899825
0.003820241825
0.003975396188
0.004601191513
0.005477720415
0.006527216379
0.007679800176
0.008913219424
0.01022209149
0.01162134786
0.01315367096
0.01488724982
0.01690160257
0.01927433568
0.02208708367
0.02544931239
0.02949196294
0.03430315452
0.03983882775
0.04593239537
0.05236197927
0.05885242048
0.0651215034
0.07093663896
0.07612986533
0.08059217739
0.08425402846
0.08713489079
0.08927190536
0.09077714895
0.09182630122
0.09251513869
0.09294553932
0.09319769476
0.09334147901
0.09342906508
0.09341170993
0.09337756621
0.09339352574
0.09341258834
0.0935210242
0.09373948242
0.09410765007
0.09490478332
0.09548209671
0.1491370974
0.0129870087
0.01021489012
0.006580649389
0.004953809384
0.004124814957
0.003820133545
0.00397495054
0.004600569918
0.005477282632
0.00652652789
0.007678376933
0.008910775254
0.01021839146
0.01161605984
0.01314615688
0.01487655289
0.01688718857
0.01925699334
0.02206783133
0.02542752479
0.02946678949
0.03427377661
0.03980890649
0.04590497459
0.05237158498
0.0589206153
0.06522797468
0.07103231261
0.07620765213
0.08065570525
0.08431227856
0.08718719276
0.08932007051
0.09084268151
0.0919157938
0.09259465465
0.09297153124
0.09318910745
0.09332487827
0.09340225531
0.09342459257
0.09344787613
0.09346388212
0.09348086118
0.09357806296
0.09377252684
0.09411946849
0.09489731965
0.09516468422
0.1486936617
0.0129869569
0.01021482215
0.006580591704
0.004953755414
0.004124751608
0.003820051361
0.003974018518
0.004598929018
0.005475383872
0.006524234865
0.007675793759
0.008908073832
0.01021570076
0.01161336154
0.01314323152
0.01487289235
0.01688194642
0.01925056255
0.0220598661
0.02541701065
0.02945282919
0.03424927573
0.03977369709
0.04591406963
0.05243508261
0.05902728204
0.06536969465
0.0712042541
0.07636210678
0.08078639455
0.08442429559
0.08726689473
0.0894036811
0.09104562128
0.09228321109
0.09307235614
0.0934462023
0.09347582961
0.09359885313
0.09368009843
0.09373483055
0.09375736788
0.09377118534
0.0937875217
0.09387011174
0.09404789532
0.09438403931
0.09515306677
0.0958273533
0.1496484038
0.01298690778
0.01021479881
0.006580559447
0.004953718079
0.004124702302
0.003819989012
0.003973668501
0.004598287863
0.005474895186
0.006523665718
0.007674908956
0.00890661128
0.01021341149
0.01160989999
0.01313816833
0.01486525201
0.01687064129
0.01923611781
0.02204261836
0.02539569238
0.02941932439
0.03419726942
0.03973216474
0.04595327045
0.05253558696
0.05915164475
0.0655226348
0.07138508925
0.0765760878
0.08101693926
0.0847058323
0.08760005008
0.08978817225
0.0915559651
0.09309831306
0.09337486553
0.0935671862
0.0936093938
0.09358042885
0.09368757997
0.09377263802
0.09382222442
0.09385138006
0.0938714988
0.09396505617
0.09415354124
0.09449034508
0.09525695
0.09524660559
0.148815263
0.01298686669
0.01021475033
0.006580518026
0.004953679136
0.004124659843
0.003819931599
0.003973205
0.004597549971
0.00547424304
0.00652284198
0.007673895446
0.008905304706
0.01021164562
0.0116075283
0.01313485881
0.01485975462
0.01686257791
0.01922435098
0.02202886893
0.02537484969
0.02937808925
0.03413251395
0.03974239197
0.04601601178
0.05264131005
0.05928527941
0.06565845391
0.07154412079
0.07676874329
0.08122033004
0.08486186217
0.08776245369
0.09014051037
0.09230305277
0.0943970227
0.09597632255
0.0960449876
0.09537316823
0.09491918385
0.09478384856
0.0946163323
0.09431947794
0.09396608584
0.09372943697
0.09360458372
0.09360279911
0.09377084526
0.09437537211
0.09387054774
0.1474375907
0.01298683185
0.01021471116
0.006580481115
0.004953642202
0.004124622615
0.003819883612
0.003972954617
0.00459724174
0.005474224774
0.006522785103
0.007673606942
0.008904505336
0.01021020248
0.0116052382
0.0131308777
0.0148527222
0.01685197621
0.01920728603
0.02200607694
0.025337726
0.02931074668
0.03410461872
0.03978059203
0.04608577118
0.05271877172
0.0593921134
0.06584215298
0.0717254668
0.07702293003
0.08144115617
0.085312179
0.08836742018
0.09074480045
0.09300561629
0.09521464441
0.09817228962
0.100929858
0.1029345235
0.1017374088
0.1000716515
0.09808726605
0.0958870066
0.09365566575
0.09151129632
0.08964154931
0.08800895789
0.08676512385
0.08613525094
0.08530602733
0.1404721324
0.01298680668
0.01021467549
0.0065804505
0.004953612812
0.004124595442
0.003819846571
0.003972733126
0.004597053272
0.005474205395
0.006523009242
0.007673697962
0.008904313355
0.01020958457
0.01160390628
0.0131281983
0.0148474953
0.01684370512
0.0191905615
0.02197871057
0.0252943141
0.02923208196
0.03409143906
0.03981297797
0.0461219199
0.05276445492
0.05945287784
0.06601987927
0.07151309861
0.07706762482
0.08089378807
0.08459162302
0.08778564048
0.09034764782
0.09260173286
0.09479423288
0.09664600344
0.09724777923
0.09703134896
0.09751165394
0.09760629206
0.09726623548
0.09666836935
0.09589652047
0.09494164868
0.09439327376
0.09396297853
0.09373523412
0.09400397108
0.09384696368
0.1478653195
0.01298679077
0.01021465606
0.006580432553
0.004953595115
0.004124578235
0.003819824695
0.003972631489
0.004597135686
0.005474235123
0.006523677371
0.00767454175
0.008905181721
0.01021032059
0.01160405657
0.01312710843
0.01484378179
0.0168373323
0.01917730018
0.02195563386
0.02525839871
0.02918121518
0.03407553458
0.0397736693
0.04604310738
0.05266651032
0.05966885689
0.06655648779
0.0729481057
0.07843927667
0.0821849447
0.08608663334
0.09043937645
0.09408148368
0.09544891332
0.09626617772
0.0958034697
0.0954452211
0.09525295334
0.09579008751
0.09618882087
0.09612028982
0.09560386334
0.09450884518
0.09332882512
0.09283816889
0.09255856394
0.09253606809
0.09304585494
0.09272240983
0.1472571889
0.0129867854
0.01021465027
0.00658042755
0.004953590024
0.004124573924
0.003819817889
0.003972613243
0.004597194368
0.00547419474
0.006523930325
0.007674945107
0.008905692401
0.01021096069
0.01160455715
0.01312732869
0.0148426037
0.01683419661
0.01916975842
0.02194371988
0.025230348
0.02915641209
0.03406406466
0.03973702936
0.04597489553
0.05255717595
0.05963847518
0.06686186048
0.07390731865
0.07932495668
0.08733121109
0.09315413574
0.1003682514
0.1064884938
0.1055505302
0.1037242931
0.1018697101
0.09885340289
0.09636641195
0.09414851088
0.0934828306
0.09309638549
0.09243663634
0.091387908
0.09021250685
0.08964341826
0.08922967717
0.08913308944
0.08920950267
0.08888236819
0.1434298626
0.01298679022
0.01021466459
0.006580438616
0.004953599431
0.004124582121
0.003819828938
0.00397262768
0.004597032242
0.005474193371
0.00652341896
0.00767420827
0.008904777276
0.01020984095
0.01160356923
0.01312671957
0.01484362035
0.01683738821
0.01917756862
0.02195604731
0.0252582269
0.02918067502
0.03407481529
0.03977456124
0.04604499809
0.05266688536
0.05966956194
0.06655452748
0.07294938375
0.07885481831
0.08473408331
0.09496000136
0.1104075741
0.1249181974
0.1198355939
0.115273311
0.1146457708
0.1077600364
0.1032241069
0.09951949056
0.09630069429
0.09365040486
0.0915190015
0.08927310272
0.08712630357
0.08569060149
0.08471561068
0.08423168713
0.08448095611
0.08488431129
0.1393359869
0.01298680563
0.0102146888
0.006580460394
0.004953620338
0.004124602105
0.003819854906
0.003972752994
0.004597013963
0.005474156343
0.006522837198
0.007673536636
0.008904184439
0.01020948298
0.01160381556
0.01312809406
0.01484737427
0.01684353416
0.01919037132
0.02197840534
0.0252933276
0.02923091119
0.03408972314
0.03981036912
0.04612058784
0.05275974768
0.05944305056
0.06601163367
0.07150341887
0.07710224504
0.08537502168
0.101799108
0.1281603307
0.1827943078
0.1638584287
0.1485312106
0.1393147894
0.1253022987
0.1139727808
0.1058439182
0.09962599307
0.09413258017
0.08961131481
0.08579382214
0.08253441592
0.07996762123
0.07795376819
0.07650723993
0.07588193884
0.07533368308
0.1277137505
0.01298683077
0.01021471988
0.006580487445
0.004953648912
0.00412463055
0.003819893757
0.003972972512
0.004597229968
0.005474130667
0.006522673042
0.007673561643
0.008904519958
0.01021024696
0.01160527455
0.01313089207
0.01485269809
0.0168518888
0.01920713206
0.02200548419
0.02533616501
0.0293091005
0.03410224617
0.03977720338
0.0460823999
0.05271266434
0.05937666312
0.06582519103
0.07171569491
0.07813771149
0.08831455767
0.1070839425
0.1395673225
0.2169034838
0.2296988338
0.2230315711
0.2222856846
0.2145685477
0.195548831
0.1833314105
0.1751606239
0.1670646175
0.1595109211
0.1527749102
0.1462407019
0.1400421597
0.1341374198
0.1286029746
0.124037845
0.116092701
0.1623485077
0.01298686475
0.01021476048
0.006580524965
0.004953686474
0.004124667539
0.003819943546
0.003973246788
0.004597593769
0.005474249483
0.006522904847
0.007673974192
0.008905385093
0.01021175591
0.01160767077
0.01313498522
0.01485980253
0.01686249135
0.01922396072
0.02202783192
0.02537287254
0.02937590388
0.03412988185
0.03973819078
0.04601021418
0.05262921741
0.05927322204
0.06564454182
0.07153575036
0.07757329654
0.08640836897
0.1025606153
0.1284119164
0.1825691516
0.1644588777
0.1491345538
0.1385770631
0.1251284238
0.1134993043
0.1050767298
0.09903577813
0.09408056698
0.09020518867
0.08698808401
0.08432445404
0.08220093681
0.08060658796
0.07967452727
0.07927405647
0.08081554304
0.1343654316
0.01298690582
0.01021480051
0.006580560935
0.004953721178
0.004124708207
0.003819998706
0.003973689885
0.004598355057
0.005474910269
0.006523706535
0.007674968207
0.008906683281
0.01021350549
0.0116100115
0.01313825536
0.01486527314
0.01687057972
0.01923572828
0.02204134161
0.02539360658
0.02941711981
0.03419453913
0.03972763107
0.04593949768
0.05253150849
0.05915952603
0.06552599478
0.07139143346
0.07707130345
0.0838521088
0.09432452859
0.1095081837
0.1233738728
0.1183530914
0.1131605699
0.1087860974
0.1037656391
0.099578379
0.09617088681
0.09354003074
0.09135668974
0.08954780574
0.08809491547
0.08698185162
0.08623069962
0.08586397018
0.08591751106
0.08660704734
0.08777004039
0.1419015123
0.01298695373
0.01021481799
0.006580589701
0.004953755482
0.00412475704
0.003820062873
0.003974096982
0.004599097309
0.00547555477
0.006524468585
0.007676071047
0.008908375151
0.0102160154
0.01161366338
0.01314346663
0.01487302704
0.01688193173
0.01925007899
0.02205830649
0.02541435091
0.02945002652
0.03424662437
0.0397701813
0.0458997871
0.05244653633
0.05904743257
0.06538485568
0.07121717916
0.07653034775
0.08175600312
0.08800455082
0.09573366326
0.1019947306
0.1009562179
0.09951686607
0.09804792683
0.09629234419
0.09462190195
0.09334375767
0.09226976729
0.09138230343
0.09066590867
0.09013002949
0.0897717281
0.08964678968
0.08975779004
0.09014853966
0.09104070881
0.09176755461
0.1455257069
0.01298700552
0.01021487658
0.006580640768
0.004953804838
0.004124815777
0.003820140293
0.00397497761
0.004600627107
0.005477302215
0.006526577032
0.00767843363
0.008910806202
0.01021838488
0.01161600255
0.01314604115
0.01487640328
0.01688696465
0.01925631421
0.02206603524
0.02542456151
0.02946347986
0.03427058625
0.03980360245
0.04589698993
0.05237235969
0.05892554548
0.06523024727
0.07103232601
0.07623831895
0.08086843254
0.08523990744
0.08959045221
0.09303202798
0.09373217555
0.09398821237
0.09396240554
0.09370683564
0.09338545858
0.09307129583
0.09277950576
0.09250877421
0.092310849
0.0921743092
0.09210252644
0.09215875349
0.09236147244
0.09276419261
0.09362460135
0.09425715247
0.1479987685
0.01298706286
0.01021491681
0.006580695647
0.004953872426
0.004124903625
0.003820251701
0.003975495343
0.004601377097
0.005477903531
0.006527471556
0.00768012249
0.008913590939
0.01022250587
0.01162178532
0.01315410376
0.01488766442
0.01690189657
0.01927407765
0.02208559498
0.02544644813
0.02948842977
0.03429921516
0.03983313919
0.04592397059
0.05235075646
0.05884024401
0.06510822618
0.07092289672
0.07612191308
0.08061593297
0.08440371508
0.08760473728
0.09006404808
0.09138758567
0.09225793549
0.09277897325
0.09306355513
0.0931908606
0.0932347869
0.09323912864
0.09316088312
0.09308581877
0.09307784736
0.09308761055
0.09320063009
0.09343314827
0.09382768614
0.09465269538
0.0952535629
0.1488981417
0.01298712079
0.01021499114
0.006580760955
0.004953940404
0.004124992959
0.00382038817
0.003977221371
0.004604481722
0.005497202889
0.006553660259
0.007713503393
0.008953601251
0.01026868496
0.01167398448
0.01321208285
0.01495074339
0.01696891892
0.01934366146
0.02215687325
0.02551819493
0.02956069744
0.03437250476
0.03990922471
0.04600449137
0.05242433238
0.05889444274
0.06514831493
0.07095055189
0.07614941498
0.08061426251
0.08428894776
0.08722006399
0.08942784644
0.09089435728
0.0918955273
0.09254412889
0.09294780884
0.09318763896
0.09332680139
0.09340961602
0.09338517022
0.09329450354
0.09328946836
0.09333500498
0.0934477955
0.09367843688
0.09405904534
0.09486848854
0.09552434313
0.1491916605
0.01298717907
0.0102150952
0.006580921121
0.004954198287
0.004125381882
0.003820922866
0.003978567783
0.004619750196
0.005531475732
0.006602653672
0.007778612961
0.009035911175
0.01036849444
0.0117906909
0.01334505084
0.01509968461
0.01713262399
0.01951880057
0.02233921034
0.02570431826
0.02974773177
0.03455847225
0.04009826569
0.04619720123
0.05261300879
0.0590751423
0.06532240938
0.07111939185
0.07629413138
0.08073047182
0.0843663969
0.08723531912
0.08937288136
0.09085444245
0.09187194044
0.09254340057
0.09296825755
0.09322859135
0.0933852667
0.09348322195
0.09347046395
0.09338928232
0.09336720541
0.09342838094
0.09354033742
0.09376224681
0.09413041968
0.09492348966
0.09569312055
0.1493929839
0.0129872364
0.01021562001
0.006581527695
0.004955168921
0.004126861991
0.003822976331
0.004002013679
0.004666722967
0.005597924857
0.006689260051
0.007885246337
0.009161850646
0.01051269
0.01195252688
0.0135239765
0.01529361904
0.01733756361
0.01973054581
0.02255454327
0.02591965534
0.02995846913
0.03476296079
0.0403017176
0.04640456096
0.05282641735
0.05929579031
0.06555112821
0.07135634312
0.07652054705
0.08092457643
0.08452640525
0.08736587524
0.08948302789
0.09096289482
0.09195482002
0.0926045844
0.09300798627
0.09325169942
0.09339862988
0.09349124477
0.09347619817
0.09339570556
0.0933759662
0.09343723049
0.09354926604
0.09376786337
0.09413313787
0.0949224103
0.09574356543
0.1494330996
0.01298730142
0.01021817032
0.006584344152
0.004959513888
0.004133287462
0.003848760165
0.004058504358
0.00475023999
0.00571381215
0.006838399313
0.008069611287
0.009381600847
0.01076749495
0.01224096442
0.01384354961
0.01564154667
0.01771009194
0.0201207773
0.0229522349
0.02631418751
0.03034134972
0.03512881718
0.0406499602
0.04673867107
0.05314873132
0.05960732723
0.06585584453
0.07165250054
0.07680565615
0.08119288718
0.08477274922
0.08758113301
0.08967153515
0.0911252387
0.09207988092
0.09269922025
0.09307744212
0.09330288895
0.09344130664
0.09353166828
0.09355977839
0.09355087566
0.09357351013
0.09363524463
0.09372602985
0.09391159039
0.09424944026
0.09501291153
0.09592216233
0.1496153656
0.01298740819
0.01023152379
0.006596766222
0.004975872877
0.00418958282
0.003937661522
0.00419703832
0.004937286478
0.005947656145
0.007116917961
0.008389431914
0.009740522095
0.01116058403
0.01266501751
0.01429437147
0.01611266101
0.01819111912
0.02059972362
0.02341967679
0.02676449814
0.03076933688
0.03553176562
0.04103343694
0.04711264004
0.05351623335
0.0599705818
0.06621334278
0.07200476473
0.07715954591
0.08155073676
0.0851334063
0.08793355785
0.09001616901
0.09144275097
0.09236495276
0.09295326234
0.09329097554
0.09348998537
0.0936202881
0.09371760731
0.09380421385
0.09388672841
0.09396943169
0.09405534637
0.09416313052
0.09431040618
0.09465014804
0.09531546776
0.09626263309
0.1499156381
0.01298881494
0.01028658384
0.006646051796
0.005059083771
0.004323180932
0.004104493132
0.004497348541
0.005350662464
0.006467264286
0.007739205222
0.009109870134
0.01055124754
0.01205471982
0.01362815293
0.0153083759
0.01715512101
0.01923961602
0.0216300256
0.0244041006
0.02767391318
0.03158276897
0.03623959052
0.04163944813
0.04762814334
0.05395504861
0.06034331332
0.06652956969
0.07227443917
0.07738653807
0.08174314687
0.08530331577
0.08809147315
0.09017327122
0.09156948635
0.09246636361
0.09303360431
0.09329068959
0.09344493862
0.09357206241
0.0936966176
0.09382569105
0.09399478198
0.09419925096
0.09442492504
0.09466335035
0.09489293562
0.09523466595
0.09575801579
0.09668529496
0.1501740671
0.01300695799
0.01050253294
0.007004053529
0.005418954364
0.004708812021
0.004694804602
0.005308731857
0.006301044292
0.007517068176
0.008869555645
0.01030594146
0.01179522213
0.01332692644
0.01491708438
0.01660780044
0.01845735887
0.02052350841
0.02286346692
0.02555735243
0.02873518116
0.03255025698
0.03711761164
0.04243776979
0.04836631846
0.05464762411
0.06099390595
0.06713208951
0.07282498844
0.0778846903
0.08219222283
0.08571257719
0.0884731313
0.09054867021
0.09199276125
0.09285053081
0.09344465532
0.09360080618
0.09371774966
0.09385115177
0.09402172788
0.09426049677
0.09469196805
0.09517068914
0.09566383689
0.09615702264
0.09661378712
0.09714844662
0.09760310916
0.09809979998
0.1513211287
0.0130953157
0.009722193985
0.007202506253
0.006112157016
0.005904465125
0.006315753812
0.007181568783
0.008386881457
0.009840372447
0.01145930244
0.01317331504
0.01493921528
0.01674905653
0.01862608436
0.02061399035
0.02275876128
0.02507492419
0.02753814806
0.03017050208
0.03311695302
0.03660872745
0.04084009026
0.04585262863
0.05150334287
0.05754810442
0.06371441282
0.0697372633
0.07536860754
0.0804026472
0.0847115536
0.0882510329
0.09105689263
0.09321332362
0.09474859371
0.09563516686
0.0962575851
0.09644868743
0.0965831827
0.09673784973
0.09693640874
0.09732671845
0.09790584072
0.0985118337
0.09911400036
0.09969907374
0.1002406636
0.1007843165
0.101008845
0.102131365
0.1558587269
0.0136156987
0.008933418677
0.007385371884
0.007157573473
0.007793047059
0.009076850443
0.01084076555
0.01294545478
0.015274762
0.01772783193
0.02021576289
0.02268322521
0.02512582055
0.02758554913
0.0301335028
0.03283489415
0.03568664425
0.03860739338
0.04158095112
0.0447681688
0.04844146401
0.05289487314
0.0581680805
0.06408636973
0.07034141175
0.07662512076
0.08266308823
0.08821376178
0.09310690055
0.0972567358
0.1007996228
0.104148876
0.1075299674
0.1103296618
0.1105786647
0.1102854759
0.1098561001
0.1093886062
0.1089715966
0.1086317043
0.1085958753
0.1087031381
0.1088522681
0.1090166741
0.1091938913
0.1093771247
0.109625247
0.109725885
0.1117561591
0.1772206712
0.01307037519
0.007639177624
0.00513125506
0.004187096777
0.004034318796
0.004401801865
0.005147131166
0.006181400708
0.007435929286
0.008854600652
0.01039120338
0.01201167193
0.01370248661
0.01547927304
0.01738444238
0.01947035187
0.021772004
0.02429157265
0.02704868772
0.03015413646
0.03380172511
0.03816930914
0.04330440338
0.049090527
0.05533812082
0.06173069317
0.06793251037
0.07367516296
0.07876597596
0.08329995843
0.08789388318
0.09318886588
0.099560951
0.1056736417
0.1051584092
0.1031985624
0.1012722194
0.099324828
0.0975845907
0.09603895976
0.09472274878
0.09364150321
0.09278339861
0.09213436153
0.09168210507
0.09141735376
0.09133799288
0.09168852918
0.09284381706
0.1462077625
0.01226608047
0.007195075535
0.00466179241
0.003202016667
0.002346056918
0.001807977551
0.00145077104
0.001204123323
0.001029554353
0.0009054662081
0.0008213971891
0.0007777318959
0.0007896819842
0.0008944123042
0.001158634236
0.001682804014
0.002598108156
0.004055018953
0.006204815709
0.009174381999
0.01303715478
0.01778731639
0.02332393897
0.02945072727
0.03590546625
0.04239654774
0.04864100098
0.05439979446
0.05949850639
0.06384106896
0.06740377169
0.07024654092
0.07246673032
0.07413835246
0.07522225759
0.07594587221
0.07641487137
0.07670277858
0.07687560568
0.07697814997
0.07703983314
0.07707849597
0.07710438268
0.07712375091
0.07714033824
0.07715628293
0.07717008693
0.07807377716
0.07789669529
0.08300652877
0.01212328329
0.007184776437
0.004667308361
0.003212317993
0.002354592171
0.001811915351
0.001448656471
0.001194642321
0.001011255031
0.0008768988941
0.0007813364729
0.0007253686986
0.0007247944911
0.0008175914079
0.00107166442
0.001589380198
0.002505017932
0.003973189883
0.006147356348
0.009151864854
0.01305276969
0.01783440606
0.02338807217
0.02951774567
0.03596307715
0.04243460104
0.04865233653
0.05437909235
0.05944382097
0.0637509296
0.06727747915
0.07006002217
0.07217742713
0.07373115378
0.07483028551
0.07557866602
0.07607746864
0.07640028086
0.07661557087
0.07676337285
0.0768657814
0.07693954488
0.07699479393
0.07703827435
0.07707338142
0.07710364268
0.07713143352
0.07838454736
0.07816858481
0.08072710121
0.01213152757
0.007235542775
0.004716255371
0.003221078467
0.002360755036
0.00181452965
0.001449164252
0.001193871608
0.001009745296
0.0008750126071
0.0007792868068
0.0007232572492
0.0007225821018
0.0008149940047
0.001068241818
0.001584790765
0.002499335651
0.003966807759
0.006141119961
0.009147073245
0.01305093937
0.01783658251
0.02339425566
0.02952696436
0.03597392245
0.04244611776
0.04866436612
0.05439247308
0.05945971962
0.06377052978
0.06730086396
0.07008526357
0.07220481846
0.07375814647
0.07485408011
0.0756084851
0.07611141187
0.07643691565
0.07664196716
0.07676972719
0.07685403942
0.07691003093
0.0769480994
0.07697531404
0.07699567264
0.07701404631
0.07725473388
0.07951200637
0.07912919666
0.08145575919
0.01216893128
0.00732127131
0.004718669883
0.0032047302
0.002351242206
0.001807622153
0.00144321304
0.001188395188
0.001004276932
0.0008691626398
0.0007727777575
0.0007159966148
0.0007147837665
0.0008074129116
0.001062318133
0.001582625743
0.002503522373
0.003980179313
0.006166194772
0.009185297828
0.01310200842
0.01789855281
0.0234641741
0.02960156862
0.03605016972
0.04252119819
0.04873591764
0.05445854867
0.05951897415
0.06382203591
0.06734516855
0.07012390347
0.07223640308
0.07378306017
0.07487523961
0.07562586036
0.07612572923
0.07644865169
0.07665161971
0.07677680886
0.07685309917
0.07689939064
0.07692915108
0.0769495057
0.07696588312
0.07721853797
0.07759120234
0.07972729692
0.07929606479
0.08154839969
0.0121689576
0.007320530037
0.004718865307
0.003203426129
0.002350467343
0.001804195324
0.001440290265
0.001185808272
0.001001884423
0.0008668932721
0.0007706389784
0.0007140755611
0.0007133238994
0.0008068849235
0.001063554543
0.001586973011
0.002512857893
0.003996671252
0.006191987194
0.009222296096
0.01315148889
0.01796040376
0.02353637483
0.02968022327
0.03613040362
0.04259816777
0.04880581331
0.05451878008
0.05954667977
0.06383662464
0.06741031886
0.07020466758
0.07230177709
0.07383175279
0.0749133825
0.07565510082
0.07614768642
0.07646502229
0.07666442316
0.07678768236
0.07686264026
0.07690823973
0.07693620828
0.0769693763
0.07707701353
0.07752227615
0.07781865701
0.07984765584
0.07939948012
0.08159906991
0.01216890958
0.00732028935
0.004718895255
0.003203195717
0.002350170693
0.001801190655
0.001436399064
0.001182469384
0.0009988521102
0.0008639740213
0.0007676988877
0.0007111027653
0.0007104864904
0.0008046272694
0.001062676518
0.001588641004
0.002518574116
0.004008174973
0.006210897475
0.009249631447
0.01318743657
0.01800425065
0.02358657457
0.02973459172