/*--------------------------------*- C++ -*----------------------------------*\
| =========                 |                                                 |
| \\      /  F ield         | OpenFOAM: The Open Source CFD Toolbox           |
|  \\    /   O peration     | Version:  2.2.1                                 |
|   \\  /    A nd           | Web:      www.OpenFOAM.org                      |
|    \\/     M anipulation  |                                                 |
\*---------------------------------------------------------------------------*/
FoamFile
{
    version     2.0;
    format      ascii;
    class       volScalarField;
    location    "3";
    object      nut;
}
// * * * * * * * * * * * * * * * * * * * * * * * * * * * * * * * * * * * * * //

dimensions      [0 2 -1 0 0 0 0];

internalField   nonuniform List<scalar> 
86889
(
0.000142179651
0.0001448187314
0.0001846282414
0.0002644896298
0.0004025600524
0.0006076921272
0.0008681195336
0.001161843837
0.001469861066
0.001780230198
0.002086903218
0.002388762885
0.002689074882
0.002994581251
0.003314345992
0.003658118519
0.004035611627
0.004460168704
0.004956472766
0.005562197209
0.006317575732
0.007244811259
0.008337101329
0.009563720895
0.01087915297
0.01222300882
0.01352931479
0.0147411216
0.01581646297
0.01673039834
0.01743810245
0.01785507703
0.0179601027
0.01792031113
0.01814739127
0.01836130556
0.01854338674
0.01871027679
0.01885583102
0.01897919023
0.01904025716
0.01906897361
0.01908789452
0.01910576298
0.01912669445
0.01915598717
0.01918185896
0.01927014495
0.01896303121
0.01569876197
0.0001394738014
0.000169265815
0.0001772294087
0.0002084041297
0.0002741088108
0.00038537696
0.0005441986846
0.0007411276375
0.0009613361943
0.001191782017
0.001424640849
0.001657723537
0.001893540996
0.002138172696
0.002400408572
0.002690995645
0.003022445294
0.003412318326
0.003891013351
0.004505000454
0.005308268753
0.006343513284
0.0076257774
0.009138545241
0.01083217953
0.01262441985
0.01441245089
0.01609758621
0.01760840328
0.01889971042
0.01995729067
0.02077953541
0.02138164414
0.02183204078
0.0222308983
0.02253906823
0.02289175675
0.0232671546
0.02361698025
0.02392996297
0.02415113858
0.02427375578
0.02436291707
0.02443379509
0.02449275535
0.02455072425
0.02459229039
0.02474732596
0.024271638
0.01750786475
0.0001388967464
0.0001924377081
0.0001708947192
0.0001737604262
0.0001975351232
0.0002582096131
0.0003735696746
0.0005317516452
0.0007147635196
0.00090909421
0.001107586283
0.001307963083
0.001511744295
0.001724203387
0.001954545309
0.002216021943
0.00252670657
0.002911816136
0.003407120955
0.004059638734
0.004920205836
0.006028042056
0.007394449514
0.008996568015
0.01077959838
0.01265969145
0.01453365774
0.01630031052
0.01788175804
0.01923485311
0.02034329864
0.02121659143
0.02187811733
0.02239977901
0.02285163132
0.02320953367
0.02362993162
0.0240494313
0.02443474412
0.02478048004
0.02508219859
0.02526940475
0.02541016341
0.0255222774
0.02561246397
0.02569378989
0.02571647539
0.02585283378
0.02586600655
0.01748133788
0.0001387576831
0.0001858749645
0.000159708777
0.000159221187
0.0001774340862
0.0002182388792
0.0003093024745
0.0004526275823
0.0006296024188
0.0008237483676
0.001025729028
0.001232250122
0.001444345432
0.001666835966
0.00190923619
0.002186418098
0.002519063961
0.002935215653
0.003473595763
0.004185100187
0.005126205379
0.006342058113
0.007848863312
0.009627102378
0.01162053687
0.01373615549
0.01585493488
0.0178598109
0.01966030467
0.02120605425
0.02247825385
0.02348800941
0.0242677028
0.02492080623
0.02544596871
0.02587199278
0.02627959989
0.02663146893
0.02692083896
0.02715831473
0.02736038629
0.02751686224
0.02763062999
0.0277134672
0.02777110158
0.02781933529
0.02778302682
0.02779762986
0.0274463393
0.01751600407
0.0001387562264
0.0001842278473
0.0001579882356
0.0001558517403
0.00017062276
0.0002074671109
0.0002851757543
0.0004169547587
0.0005854541831
0.0007740395856
0.0009726366255
0.001177394565
0.001388891312
0.00161255009
0.001858949735
0.002144195675
0.002490485282
0.002928031878
0.003498367901
0.004255446296
0.005258264501
0.006553475095
0.008157581364
0.01005032549
0.01217326593
0.01442784642
0.01668807652
0.01882875229
0.02075361781
0.022409277
0.0237785268
0.02487078034
0.02572516959
0.02641807003
0.02697551063
0.0274067329
0.0277579701
0.02803670148
0.02825374066
0.02842314666
0.02855689806
0.02866306816
0.02874889268
0.02881763059
0.02886814633
0.02889719387
0.02882065571
0.02870053607
0.02823491065
0.01755437075
0.0001387546971
0.0001838299921
0.0001575196788
0.0001551055623
0.000167780108
0.0002017329324
0.0002740720347
0.0004003222187
0.0005641911155
0.0007493550582
0.0009454635643
0.001148364564
0.001358748964
0.001581944661
0.001828757564
0.002115986662
0.002466785505
0.002912312085
0.003495177699
0.004270973028
0.005300732158
0.006632805708
0.008285491617
0.01023987494
0.01243584104
0.01477162625
0.01711541476
0.0193387407
0.02134426687
0.02307212267
0.02450063626
0.02564507908
0.02654633027
0.02726341762
0.02783378668
0.02826360598
0.02858949487
0.02883248184
0.0290125155
0.02914821512
0.0292801603
0.02940242922
0.02945801252
0.02948819198
0.0295010806
0.02947631694
0.02939829282
0.02920019781
0.02871788855
0.01757515949
0.0001387541023
0.0001837549085
0.0001574118537
0.0001549075842
0.0001674306331
0.0002001068373
0.0002695497242
0.0003924988939
0.0005525335901
0.0007339275289
0.0009264642459
0.00112600588
0.001333183318
0.001553462552
0.001797868864
0.002083469004
0.002433918592
0.002881242489
0.003469125025
0.004254257876
0.00529869086
0.006651397284
0.008330957978
0.01031875373
0.01255344203
0.01493121596
0.01731833553
0.01958110442
0.02161726143
0.02337362862
0.02482341476
0.02598611597
0.02690595714
0.02763484482
0.0281994202
0.02861924039
0.02892912033
0.02915323464
0.02931336707
0.02943043398
0.02957424841
0.02972639352
0.02978606955
0.02979161052
0.02977468239
0.02971745276
0.02960916541
0.02938309851
0.02897967121
0.01758222585
0.0001387536913
0.0001837402316
0.0001573880802
0.0001548617867
0.0001673472103
0.0001999700046
0.0002676858553
0.0003880149311
0.0005454497341
0.0007241885014
0.0009140709025
0.001111048674
0.00131580332
0.001533795381
0.001776130279
0.002060130778
0.00240977677
0.002857400548
0.003447137719
0.004236395769
0.005287923518
0.006651231248
0.008345892003
0.01035382853
0.01261298445
0.01501807324
0.01743331785
0.0197169349
0.02176782283
0.02353878383
0.02500066257
0.02617366474
0.02710166587
0.0278397098
0.02839637131
0.02880175677
0.02909239367
0.02929749935
0.02944237
0.02954760928
0.02968197103
0.02982643886
0.02989783794
0.02989097666
0.0298622881
0.0297937019
0.02967563532
0.02944179711
0.02906306282
0.01758917013
0.0001387532738
0.0001837387861
0.0001573843841
0.0001548537979
0.0001673318706
0.0001999441975
0.0002675737695
0.0003865456976
0.0005417117734
0.0007184739041
0.0009062345672
0.001101012554
0.001303574674
0.001519476704
0.001759877259
0.002042185254
0.002390636148
0.002837987928
0.003428880222
0.004221374122
0.005279019899
0.006651992873
0.008359287255
0.01038397702
0.01266393669
0.01509218642
0.01753152342
0.01983182886
0.02190035429
0.02368238275
0.02514991931
0.02632751016
0.02726288067
0.02800347324
0.02854284954
0.02893234235
0.02920782987
0.02940089321
0.02953640874
0.02963408364
0.02976283208
0.02990325726
0.02995299099
0.02995223817
0.02991697271
0.02984174956
0.02971839228
0.0294811125
0.02929314695
0.01758867085
0.0001387528717
0.0001837371295
0.0001573825322
0.0001548513248
0.0001673277951
0.0001999365567
0.0002674161686
0.0003862165614
0.000539541265
0.00071533131
0.0009020885042
0.001095923218
0.001297601466
0.001512674702
0.001752356191
0.002034165326
0.002382486457
0.002830275715
0.003422476017
0.004217644148
0.005279069785
0.006658042494
0.008375029443
0.01041143557
0.01270541795
0.01514581297
0.01759809094
0.0199192505
0.0220049338
0.02380058872
0.02527917662
0.02646722464
0.02741373978
0.02815082141
0.02868105206
0.02905834309
0.02931470497
0.02948836945
0.02960823137
0.02969407832
0.02980822551
0.02989721199
0.02992490299
0.02994055636
0.02990099848
0.02982679276
0.02970514479
0.02947002233
0.02925123393
0.01759721365
0.0001387524648
0.0001837377974
0.000157382798
0.0001548514513
0.0001673275626
0.0001999360609
0.0002673877245
0.0003861728912
0.0005395229
0.0007153015057
0.000902008837
0.001095777944
0.001297382911
0.001512375933
0.00175197516
0.002033746807
0.00238222694
0.002830630877
0.003424085192
0.004221259952
0.005285873685
0.006670699133
0.008400113073
0.01044983679
0.01274320431
0.01516921017
0.01761191365
0.0199548102
0.02206080591
0.02386622365
0.02534571644
0.02652941501
0.02747108409
0.02818996527
0.0287002434
0.02907722871
0.0293610005
0.02954444765
0.02965184037
0.02972976771
0.02980314916
0.02984359775
0.02987134669
0.02988926178
0.0298492836
0.0297814269
0.02966716628
0.02944099705
0.02951670661
0.01759579393
0.0001387521053
0.000183736978
0.0001573819301
0.0001548505237
0.0001673260815
0.0001999334562
0.0002673072889
0.0003860115618
0.0005393250771
0.0007150621146
0.0009017477913
0.00109552198
0.001297158544
0.00151220979
0.001751906367
0.002033851459
0.002382672023
0.002831817303
0.003426162184
0.004225090753
0.005294240921
0.006687072586
0.008429282327
0.01048581455
0.01276844952
0.01518129748
0.01761389768
0.01994463808
0.02207545878
0.02390423652
0.02540443368
0.02661329837
0.02755715339
0.02823084576
0.02869100068
0.02905009413
0.02933581606
0.02961831602
0.02969757534
0.02973459881
0.02974864993
0.02976003145
0.02976476926
0.02976388611
0.02971906382
0.02964918421
0.02953326071
0.02930604272
0.02904059733
0.01760133138
0.0001387517645
0.0001837375858
0.0001573822638
0.000154850865
0.000167326281
0.000199933724
0.0002672831507
0.0003859586411
0.0005392900836
0.0007150278889
0.000901698455
0.001095441828
0.001297038231
0.001512046971
0.001751721159
0.002033690631
0.002382702769
0.002832257601
0.003427484433
0.004229298911
0.005304404889
0.006708818983
0.008457347808
0.01051115061
0.01279329221
0.01519684901
0.01760919329
0.01992713108
0.02204105627
0.02386575148
0.02533940128
0.02650825344
0.02741480373
0.02803259958
0.02839072552
0.0292412231
0.02977797298
0.03010921844
0.03029555166
0.03029009114
0.03025598466
0.03022182725
0.0301900803
0.03016083132
0.03007947779
0.0299738082
0.02982760691
0.02957702602
0.02985681521
0.01764532539
0.0001387514796
0.0001837371199
0.0001573818154
0.000154850426
0.0001673257456
0.0001999325907
0.0002672455673
0.00038589079
0.0005392304383
0.0007149576924
0.0009016219275
0.001095355415
0.001296938725
0.001511946962
0.001751648069
0.002033672235
0.002382918678
0.002832548133
0.003428981693
0.00423388031
0.005315961805
0.006730995922
0.008482581308
0.01053480899
0.01281580661
0.01521810082
0.01761370057
0.01992917016
0.02203794309
0.02386980218
0.02539110397
0.02656862404
0.02738017245
0.02788254004
0.02813760187
0.02830170365
0.02854633434
0.02861265623
0.0286412952
0.02863226348
0.02860287728
0.02856678252
0.02853058953
0.02849148398
0.02844933478
0.02838977023
0.02829601104
0.0281131613
0.02760738442
0.01720098126
0.000138751238
0.0001837368537
0.0001573815448
0.0001548501578
0.0001673256673
0.0001999323076
0.0002672278312
0.0003858676335
0.0005392405489
0.0007149736979
0.0009016292427
0.001095333676
0.00129688422
0.001511861566
0.00175151982
0.002033516465
0.002382897827
0.002832566576
0.003430212007
0.004237302876
0.005325581626
0.006747930708
0.008504956184
0.01055809359
0.01282814241
0.01521462621
0.01760423994
0.01994251725
0.02202390731
0.02387642991
0.02522904871
0.02625883139
0.02702665141
0.02748051174
0.02804629281
0.02781208053
0.02539591721
0.01997385534
0.01947773121
0.01953966509
0.01963521218
0.01954614748
0.01947873169
0.01947960824
0.01954872162
0.01961145015
0.01965506084
0.01969976958
0.01874023325
0.01484317
0.0001387510633
0.0001837364054
0.0001573811278
0.0001548497036
0.0001673253061
0.0001999315327
0.0002672107376
0.0003858536054
0.0005392467072
0.0007150114547
0.0009016672472
0.001095362343
0.00129689823
0.001511853558
0.001751479095
0.002033444708
0.002382911807
0.002832701498
0.003431320223
0.004239638081
0.00533283664
0.006761516979
0.008524437926
0.01057116402
0.01282724799
0.0151706813
0.01747492441
0.02012719689
0.02216032731
0.02456685052
0.02617985733
0.02723324915
0.02793399439
0.02838174763
0.0285803683
0.0285973693
0.02866232379
0.02852960107
0.02805098334
0.02770693793
0.02757010234
0.02746292376
0.02732281115
0.02716332423
0.02705076327
0.0269228811
0.02676901701
0.02655068813
0.02544376993
0.01685437555
0.000138750953
0.0001837362379
0.0001573809564
0.0001548495251
0.0001673252085
0.0001999313096
0.0002672036723
0.0003858656533
0.0005392562256
0.0007150886935
0.0009017748844
0.001095491417
0.001297037273
0.001511970526
0.001751540455
0.002033410465
0.00238287575
0.002832752882
0.003432002642
0.004241468598
0.005338674691
0.006769074824
0.00853691013
0.01055847247
0.01273778646
0.01505466618
0.01735101351
0.01974560177
0.02184510222
0.02353999347
0.02470276663
0.02481582935
0.02458441257
0.02499366231
0.02542935558
0.02578770328
0.02603751498
0.02619955179
0.02583390111
0.02541764714
0.02519765013
0.02519915032
0.02533947415
0.02548572272
0.0256144135
0.02573079651
0.02582027904
0.02583348106
0.0255301736
0.01678840818
0.0001387509157
0.0001837361906
0.0001573809121
0.0001548494675
0.0001673252029
0.0001999312063
0.0002672026574
0.0003858728019
0.0005392541653
0.0007151165476
0.000901822535
0.001095558372
0.001297125842
0.001512058401
0.001751615292
0.0020334143
0.002382817854
0.002832663862
0.003432146389
0.004242742924
0.005341892122
0.006774532866
0.008546417109
0.01055661733
0.01267711746
0.01507593381
0.01750742504
0.01978398015
0.02189717077
0.01785574054
0.0181406639
0.01803280528
0.01781813547
0.01811785832
0.01838071742
0.01855219088
0.01865366827
0.01886056766
0.01902887388
0.0189172497
0.01876098908
0.0186865841
0.01857972297
0.01850296478
0.01858447151
0.01874811983
0.01899278544
0.01939209886
0.01915333348
0.01540862663
0.000138750949
0.0001837364901
0.000157381169
0.0001548497068
0.0001673253931
0.0001999315511
0.0002672031828
0.0003858548367
0.0005392508663
0.0007150613858
0.0009017372757
0.001095443063
0.001296978829
0.001511909739
0.001751487867
0.002033375176
0.002382853461
0.002832730779
0.003431952908
0.004241364807
0.005338490097
0.006768752982
0.008536451088
0.01055844707
0.01273705985
0.01505374473
0.0173489772
0.01974377807
0.02158890113
0.0220196128
0.02051621106
0.01846989735
0.0172228791
0.01759357967
0.01785523519
0.01751388766
0.01776970837
0.01793998776
0.01811395336
0.0182927092
0.01844603129
0.01857285487
0.01875536795
0.01899617413
0.01923508847
0.01950246234
0.01980276922
0.02010320825
0.02027588734
0.0152258305
0.0001387510561
0.0001837368213
0.0001573814956
0.0001548500493
0.0001673256636
0.0001999320609
0.0002672123832
0.0003858492826
0.0005392406161
0.0007149920586
0.0009016464773
0.001095341973
0.001296877606
0.001511830755
0.001751451159
0.002033408556
0.002382859167
0.002832617152
0.003431167587
0.004239371266
0.005332361281
0.006760723884
0.008523101066
0.01057041768
0.01282596585
0.01516793572
0.01747137562
0.02011863124
0.02212016178
0.02166246687
0.01879679504
0.01656748766
0.01429311131
0.01425595224
0.01426010943
0.01382577212
0.01375983281
0.01379659074
0.0139543445
0.01416084707
0.01435842263
0.01456608934
0.01476589572
0.0149518393
0.01515836815
0.01536723885
0.01559408149
0.01583650384
0.01575581633
0.01349001956
0.0001387512307
0.0001837371246
0.0001573817574
0.0001548503966
0.0001673259521
0.0001999327748
0.0002672290261
0.0003858657203
0.0005392293346
0.0007149590876
0.0009016191436
0.001095327369
0.001296878547
0.001511852215
0.001751502891
0.002033484832
0.002382837318
0.002832449703
0.003429983393
0.004236903306
0.005324864831
0.006746772783
0.008503230677
0.01055658835
0.0128271804
0.01521104177
0.01759815165
0.01993315295
0.02130123352
0.02022433044
0.01782426961
0.01587696822
0.01226201857
0.108304105
0.1026815999
0.07968765974
0.07500668359
0.05804868759
0.0523733441
0.05056307144
0.04857432173
0.04662318799
0.0449287509
0.04318374013
0.04144219437
0.03966716086
0.03782125841
0.03600822026
0.03162720086
0.0202818001
0.0001387514662
0.0001837374627
0.0001573820847
0.000154850748
0.0001673261412
0.0001999333218
0.0002672490889
0.0003858946963
0.0005392301305
0.0007149614878
0.0009016256188
0.00109535797
0.001296942141
0.001511949162
0.001751640456
0.002033641094
0.002382842334
0.002832385591
0.00342867138
0.004233344991
0.005315033122
0.006729462112
0.008480319471
0.01053161571
0.01280743145
0.01521368325
0.01760743247
0.01992156574
0.02148680097
0.02087359069
0.01844055166
0.01646616134
0.01423874752
0.01431392823
0.01439168881
0.01455500232
0.01458530185
0.01475184119
0.01497218821
0.01514000912
0.01531469096
0.01548214911
0.01565505441
0.01583802202
0.01603056112
0.01625298688
0.01650122931
0.01683648994
0.01754038936
0.01436071145
0.0001387517511
0.000183737663
0.0001573823282
0.0001548509769
0.0001673265332
0.0001999342194
0.0002672846456
0.0003859646411
0.0005392904923
0.000715029544
0.0009017001848
0.001095442893
0.001297038659
0.001512044045
0.001751706796
0.002033651648
0.002382615824
0.002832071058
0.003427122853
0.004228668294
0.005303315285
0.006707001475
0.008454646946
0.01050189327
0.01277777496
0.01519012167
0.01760076622
0.01991754749
0.02169413543
0.02200655245
0.02033016976
0.01829587676
0.01704669853
0.01739181605
0.01772789515
0.01801007086
0.01847357039
0.0189344494
0.01935043144
0.01965355749
0.01994252428
0.02024260837
0.02056266552
0.0209108753
0.0212593497
0.0216372538
0.02204433488
0.02242025493
0.0232559103
0.0160121948
0.0001387520837
0.0001837369029
0.0001573819062
0.000154850591
0.0001673264108
0.0001999341936
0.0002673141597
0.0003860281899
0.0005393427746
0.0007150857299
0.0009017743755
0.00109554862
0.001297182486
0.001512225473
0.001751903459
0.00203381479
0.002382572636
0.002831595454
0.003425735826
0.004224365046
0.005293006866
0.006684960063
0.008424579776
0.01047218519
0.01275426292
0.01517187655
0.01760290328
0.01993195336
0.02194886656
0.02317602003
0.02291210792
0.02154338062
0.02054015794
0.02116224531
0.0217247602
0.02218916929
0.02272706292
0.02324458742
0.02360034874
0.02391929901
0.02422223894
0.02453207075
0.0248501511
0.02517993565
0.02546653656
0.02574454388
0.02600779525
0.02617916201
0.02679177485
0.01692089381
0.0001387524432
0.0001837374222
0.0001573824926
0.0001548512276
0.0001673275222
0.0001999363139
0.0002673896274
0.0003861775762
0.000539523127
0.0007153029903
0.0009020086985
0.001095772521
0.001297370026
0.001512352147
0.001751934669
0.00203367866
0.002382101538
0.00283038317
0.0034236272
0.004220492589
0.005284593117
0.006668536364
0.008395609757
0.01044170864
0.01273409758
0.01516045603
0.01760178307
0.01994305592
0.02202562112
0.02368334799
0.02458691153
0.02461036213
0.02443283039
0.02515389162
0.02572908052
0.02617580399
0.02656618537
0.02687240343
0.0271075964
0.02731465201
0.02752031652
0.02769836156
0.0278687125
0.02803431474
0.02815415797
0.02825141201
0.02830994916
0.02825841497
0.02839360893
0.01737337409
0.0001387528433
0.0001837370067
0.0001573824526
0.0001548513598
0.0001673280667
0.0001999372104
0.0002674249716
0.0003862349321
0.0005395601419
0.0007153568275
0.0009021188612
0.00109595525
0.001297632279
0.001512698802
0.001752364007
0.002034139863
0.002382389845
0.002830034465
0.003421993613
0.004216814279
0.005277693557
0.006655796249
0.008371735138
0.01040705833
0.01270005188
0.01513909882
0.0175905225
0.01991124075
0.02199282793
0.02376304761
0.02513466572
0.026033474
0.02663996275
0.02737829779
0.02792772122
0.02833639348
0.02863378186
0.02885226814
0.0290166788
0.02914705899
0.02930599193
0.02944018472
0.02951322633
0.02957337406
0.02957740095
0.02954603416
0.02946751405
0.02927350347
0.02911141874
0.01756111738
0.0001387532445
0.0001837379935
0.000157383749
0.0001548533381
0.0001673316827
0.0001999446553
0.0002675797682
0.000386549351
0.000541711787
0.0007184770154
0.0009062355227
0.001101004629
0.001303552665
0.001519434283
0.001759808585
0.002042080806
0.002390464957
0.002837681217
0.003428347771
0.004220517458
0.005277643799
0.006649761445
0.008355971001
0.01037952221
0.01265838861
0.01508561807
0.01752404587
0.01982378235
0.02189148378
0.02367103126
0.02512692414
0.02625928843
0.02712510442
0.02786059879
0.02840181536
0.02879372286
0.02907229407
0.02926961416
0.02941067947
0.02951535894
0.02965230523
0.02980157931
0.02986056806
0.02986868003
0.02984513622
0.02978090055
0.02966793167
0.0294405307
0.02914904132
0.01758964464
0.000138753656
0.0001837391553
0.0001573871996
0.0001548610339
0.0001673466122
0.0001999694215
0.000267673766
0.0003879969882
0.0005454318261
0.000724176374
0.0009140636664
0.001111047863
0.001315805254
0.001533791761
0.001776113343
0.002060087587
0.002409669173
0.002857149327
0.003446635838
0.004235527446
0.005286502857
0.006648953825
0.008342598498
0.01034960904
0.01260803118
0.01501265767
0.01742779047
0.01971169151
0.02176286673
0.02353347901
0.02499477422
0.02616345031
0.02708737878
0.02782969987
0.02838441477
0.02878875474
0.02907947138
0.02928531244
0.02943116128
0.02953728409
0.02967222783
0.0298168439
0.0298881293
0.0298825907
0.02985497459
0.02978681973
0.02966873944
0.02943474556
0.02901970354
0.01758937714
0.0001387540658
0.000183753933
0.000157411038
0.0001549068725
0.0001674300973
0.0002001061716
0.0002695636157
0.0003925415672
0.0005526019137
0.0007340609023
0.000926605147
0.001126126453
0.001333275347
0.001553517536
0.00179788028
0.002083430147
0.002433798203
0.002880966435
0.003468603167
0.004253406474
0.00529736287
0.006649295085
0.008327824479
0.01031462189
0.01254844281
0.01492540192
0.01731166393
0.01957456323
0.02161072429
0.0233674943
0.02481743368
0.02597900385
0.02689676929
0.02762286837
0.02818585822
0.02860359006
0.02891132471
0.02913385133
0.02929310681
0.02940976428
0.0295534409
0.02970552566
0.02978354738
0.02978910002
0.02977141558
0.02971375452
0.02960545059
0.0293803565
0.02892753377
0.01758460334
0.0001387546552
0.00018382804
0.0001575179466
0.000155103694
0.0001677772084
0.0002017292162
0.0002740501225
0.0004002793102
0.0005641161017
0.0007492103389
0.000945331217
0.00114826939
0.001358665522
0.001581861047
0.001828673814
0.002115885776
0.002466615265
0.002911992719
0.003494614618
0.004270057231
0.005299283803
0.006630498629
0.008282005014
0.01023520073
0.012429941
0.01476466763
0.01710706078
0.01932974421
0.02133499915
0.02306173134
0.02449025984
0.02563436802
0.02653478442
0.02725018433
0.0278199641
0.02824917981
0.02857476694
0.02881793842
0.02899865784
0.02913514666
0.0292676961
0.0293902949
0.02946434325
0.02949469917
0.02950674029
0.02948111408
0.02940222762
0.02920357147
0.02869595195
0.0175768508
0.0001387561942
0.0001842291212
0.0001579894415
0.000155852682
0.0001706239113
0.0002074703968
0.0002852520685
0.0004171018827
0.000585647931
0.0007742636781
0.0009728630702
0.001177620996
0.001389131178
0.001612835956
0.001859238098
0.00214446556
0.002490707425
0.002928129801
0.003498224147
0.004254926918
0.005257183522
0.006551468644
0.008154295061
0.01004563559
0.01216714992
0.01442042082
0.01667879511
0.0188190806
0.02074297601
0.02239852379
0.0237675079
0.02485927895
0.02571100542
0.02640040793
0.02695746878
0.02738855151
0.02773944709
0.02801799674
0.02823506372
0.02840458645
0.02853841955
0.02864514596
0.02873170311
0.0288003702
0.02884170481
0.02886493307
0.02878593798
0.02867374903
0.02818721024
0.01755598823
0.0001387698881
0.0001858853422
0.000159732618
0.0001592434796
0.0001774529787
0.0002182532037
0.0003092571559
0.0004525350908
0.0006294838311
0.0008236137492
0.001025592847
0.001232120278
0.001444228248
0.001666684906
0.001909086385
0.002186259038
0.002518875595
0.002934956114
0.003473179441
0.004184437126
0.00512512705
0.006340301517
0.007846106261
0.009623228205
0.01161553795
0.01373008508
0.01584754687
0.01785140994
0.01965218875
0.02119873093
0.02247126405
0.02347990634
0.02425850957
0.024909691
0.02543466255
0.02586041745
0.02626752651
0.02661907081
0.02690829184
0.02714614444
0.02734868209
0.02750125627
0.0276104923
0.02768691876
0.02773849141
0.02778111475
0.02774924283
0.02776924769
0.02740664537
0.01751808755
0.0001389085658
0.0001924587881
0.0001709280458
0.0001737954503
0.0001975760503
0.0002584173621
0.0003739093695
0.0005321881394
0.0007152999002
0.0009097212639
0.001108293785
0.001308743392
0.001512578207
0.001725069368
0.001955410592
0.002216884555
0.002527523804
0.002912479428
0.003407488419
0.004059581029
0.004919607095
0.006026626948
0.007392036997
0.0089930291
0.01077514159
0.01265442633
0.0145275173
0.01629294448
0.01787370935
0.0192263524
0.02033382587
0.0212056405
0.02186692589
0.02238722904
0.02283920467
0.02319698653
0.02361755417
0.02403671177
0.02442214745
0.02476806137
0.02506652485
0.02525059289
0.02538791513
0.02549461322
0.02557871191
0.02565945175
0.02567539276
0.02579957393
0.02579824383
0.0174828447
0.0001394739052
0.0001692661452
0.0001772175128
0.0002081891186
0.0002737103052
0.0003849065553
0.0005436591999
0.0007404889355
0.0009605948717
0.001190970675
0.001423797856
0.001656866332
0.001892659208
0.002137240868
0.002399405102
0.002689926924
0.003021318445
0.003411150661
0.003889761161
0.00450359932
0.005306616077
0.00634135518
0.007622898517
0.009134941745
0.01082792434
0.01261971384
0.01440692105
0.01609149177
0.0176008624
0.01889224463
0.01994879438
0.02077059452
0.02137177971
0.02182147044
0.02222039768
0.02252856271
0.02288109667
0.02325633512
0.02360635653
0.02391957123
0.02413805408
0.02425819842
0.02434442025
0.02441099589
0.02446535907
0.02452071476
0.02455430834
0.02470590078
0.02423357214
0.01750937419
0.0001421796081
0.0001448171071
0.000184628243
0.0002645263003
0.0004027246822
0.000608002479
0.0008684896274
0.001162208934
0.001470199827
0.001780531383
0.002087160505
0.002388964329
0.002689198352
0.002994610346
0.003314270899
0.003657933231
0.004035281115
0.004459625906
0.004955661915
0.005561144981
0.006316262019
0.007243023879
0.008334805531
0.00956091395
0.01087580262
0.01221934726
0.01352535485
0.01473721769
0.01581281983
0.0167262655
0.01743481675
0.0178532622
0.01795802565
0.01791817438
0.01814437962
0.01835818494
0.01854026826
0.01870717287
0.01885270394
0.01897607794
0.01903551629
0.01906290027
0.01908057581
0.0190971236
0.01911688004
0.01914585265
0.01917080789
0.01925776469
0.01894942094
0.01570055144
0.0001393167603
0.0001144853006
0.0001095909786
0.0001262297376
0.0001719769101
0.0002584186414
0.0003924575675
0.000570227028
0.0007792865586
0.001006543658
0.001243028632
0.001484794116
0.001732797842
0.001992893037
0.002275291539
0.002593755936
0.002965242048
0.003412487562
0.003971524342
0.004697280537
0.005656462538
0.00690610824
0.008470938681
0.0103324051
0.01241457943
0.01461642507
0.01683149194
0.0189555118
0.02089830733
0.02247929094
0.02324591458
0.02292362196
0.02175172231
0.02057340056
0.02075060722
0.02112071795
0.02142592554
0.02173342237
0.02202017506
0.02229989666
0.02256798496
0.02282495226
0.02307532184
0.02332677008
0.02358659081
0.02385974561
0.02414607273
0.0243696505
0.02433718993
0.01659680044
0.0001349700644
0.0001099818113
9.440270769e-05
8.360815736e-05
7.647743689e-05
7.165623046e-05
6.843399448e-05
6.645692645e-05
6.557929994e-05
6.584590011e-05
6.767984105e-05
7.247370412e-05
8.397766998e-05
0.0001111424468
0.0001731973292
0.0003066695845
0.000571435903
0.001053183576
0.001862117399
0.003126594421
0.004980058508
0.007542223895
0.01089883609
0.01508873761
0.02008733312
0.02579421048
0.032033014
0.03855554857
0.04507661617
0.05128778876
0.05691374871
0.06151573039
0.06465647449
0.06645949387
0.06877531499
0.07064618193
0.07203571006
0.07306232756
0.07375178951
0.07416718951
0.07438371942
0.07447639425
0.07450750681
0.07451509411
0.07452718317
0.07455227417
0.07465326251
0.06199941066
0.06278723715
0.03547839251
0.0001340100895
0.0001114253043
9.57028549e-05
8.475939128e-05
7.738940077e-05
7.223357869e-05
6.854600477e-05
6.591380745e-05
6.412581515e-05
6.317820277e-05
6.347272602e-05
6.640438245e-05
7.575284982e-05
0.0001006424409
0.000161077336
0.0002956050287
0.0005670533659
0.001063118782
0.001893065899
0.003181458212
0.005057645449
0.007640620355
0.01102101499
0.01524365512
0.02029209348
0.02607731098
0.03243230889
0.03911875182
0.0458471972
0.05231338712
0.0582399705
0.06342780346
0.06777610609
0.07130561178
0.07411908681
0.07640856095
0.0781128143
0.07936232486
0.08006683015
0.08034068072
0.08037233391
0.08025757307
0.08006819467
0.07984271137
0.07961684086
0.07938463441
0.07915088483
0.06484795677
0.06568588103
0.04563217983
0.0001340644072
0.00011175378
9.617692636e-05
8.475820302e-05
7.738399773e-05
7.214095328e-05
6.838464299e-05
6.569779516e-05
6.387253652e-05
6.290710936e-05
6.320064332e-05
6.614319301e-05
7.550159925e-05
0.0001003750815
0.000160772111
0.0002953391495
0.000567136116
0.001064214337
0.001896416191
0.00318909768
0.005072500459
0.007666747714
0.01106453274
0.01531365857
0.02040155682
0.02624252796
0.03267256986
0.03945490466
0.04630086589
0.05290373011
0.05898561041
0.06434091694
0.06887376243
0.07260172714
0.07563152486
0.07791833917
0.07959447128
0.08079296696
0.08163717349
0.08221545004
0.08251915348
0.08265709628
0.08270077194
0.08268744024
0.08264819327
0.0825538937
0.07911254878
0.05776618176
0.05874456562
0.04326958862
0.0001343375335
0.0001125144529
9.623392054e-05
8.450479817e-05
7.71687759e-05
7.194695805e-05
6.816273779e-05
6.543622281e-05
6.354552572e-05
6.248324821e-05
6.265122145e-05
6.545848156e-05
7.472699272e-05
9.97114644e-05
0.0001607825938
0.0002972168634
0.0005727880161
0.00107602658
0.001916847978
0.003220359812
0.005116573482
0.007725679794
0.01114070074
0.01540995599
0.02052158708
0.02639131148
0.03285681244
0.03968355536
0.04658429443
0.0532533067
0.05940804392
0.0648433655
0.06945969313
0.07326364167
0.07631414389
0.07861388989
0.08029537504
0.08149079347
0.08232188411
0.08289554219
0.08328790286
0.08355561754
0.08371118346
0.08378962261
0.0837962362
0.08016900596
0.07510323101
0.05682261453
0.05801127778
0.04321308259