/*--------------------------------*- C++ -*----------------------------------*\
| =========                 |                                                 |
| \\      /  F ield         | OpenFOAM: The Open Source CFD Toolbox           |
|  \\    /   O peration     | Version:  2.2.1                                 |
|   \\  /    A nd           | Web:      www.OpenFOAM.org                      |
|    \\/     M anipulation  |                                                 |
\*---------------------------------------------------------------------------*/
FoamFile
{
    version     2.0;
    format      ascii;
    class       volScalarField;
    location    "3";
    object      p;
}
// * * * * * * * * * * * * * * * * * * * * * * * * * * * * * * * * * * * * * //

dimensions      [0 2 -2 0 0 0 0];

internalField   nonuniform List<scalar> 
86889
(
590.0718028
589.7279888
589.5924827
589.4251233
589.169445
588.8866387
588.5948141
588.2749488
587.9144114
587.5097014
587.0572445
586.5517008
585.9856603
585.3516028
584.6399553
583.8392571
582.9352832
581.9121643
580.7575456
579.4590965
577.9957065
576.3458161
574.4830339
572.3681179
569.9537903
567.1991628
564.0487814
560.4383079
556.2874353
551.5013995
545.9551956
539.515615
532.026578
523.3150466
513.2178375
501.4693198
487.899911
472.175449
453.9698052
432.956717
408.7908782
381.1528935
349.7742385
314.4822365
275.226362
232.1218332
185.5085542
136.1462558
85.56064877
38.62371931
589.9207091
589.6624468
589.4833196
589.2861377
589.0608547
588.8090122
588.5331714
588.2271012
587.8823078
587.4933713
587.0559634
586.5647226
586.0127459
585.3927889
584.6954674
583.9093686
583.0219265
582.0176449
580.8815015
579.6017847
578.1603478
576.5336485
574.6905248
572.5994283
570.2155693
567.4963306
564.3880444
560.8280423
556.7340216
552.0128645
546.5461684
540.2014185
532.8305217
524.244169
514.2729308
502.6603418
489.3206797
473.7052769
455.6365795
434.7833088
410.762672
383.2345047
351.9188632
316.6234428
277.2685206
233.9297539
186.8820207
136.7811204
85.44737449
38.09876465
589.9213424
589.7497376
589.6020604
589.424344
589.2116914
588.9698566
588.7040247
588.4023061
588.0570399
587.6670189
587.2303258
586.7420271
586.1957872
585.5841545
584.8973819
584.126061
583.2569988
582.2755939
581.1697435
579.9231974
578.5182676
576.9301185
575.1346825
573.0958334
570.7765801
568.1303659
565.1098076
561.6509189
557.6799587
553.0998952
547.8025281
541.6483039
534.4953463
526.1566392
516.4455041
505.1257234
492.0993006
476.8479388
459.1357728
438.6237014
414.8896541
387.5943834
356.4147938
321.1430802
281.639523
237.9498533
190.3582701
140.0976166
86.98550465
39.36115207
589.929891
589.7529328
589.5905466
589.3937355
589.1957934
588.9737009
588.7116751
588.4256643
588.1018459
587.7327928
587.3188728
586.8572478
586.3411603
585.7612921
585.1096085
584.374787
583.5463635
582.6097423
581.5510013
580.3557027
579.0076016
577.4857608
575.7638225
573.8087416
571.5838636
569.0500756
566.1594796
562.8535644
559.059479
554.6889496
549.6296304
543.7599868
536.9281577
528.9500858
519.625599
508.726644
496.0480851
481.2727228
464.0625171
444.0256725
420.7272109
393.7836417
362.8345292
327.5988169
287.910046
243.8407565
195.8867909
144.9304625
89.69975508
40.64127427
590.0123036
589.8503333
589.7114617
589.5334938
589.3538086
589.1673765
588.9322652
588.6584888
588.3489526
587.9944483
587.5926465
587.145534
586.6475193
586.0909535
585.4676523
584.7682144
583.980805
583.091711
582.0877245
580.9564282
579.6806314
578.2396824
576.6097341
574.7604842
572.6587986
570.2676737
567.5439335
564.4323834
560.8673311
556.7600586
552.0081814
546.4913146
540.0571865
532.5258688
523.6981134
513.3566988
501.2551939
487.1269572
470.5829368
451.1790643
428.4588338
401.9968717
371.3542743
336.191883
296.2869639
251.8061818
202.9849834
150.3097593
93.08641953
42.19104609
590.1055714
589.9404286
589.7996821
589.6180004
589.4350362
589.2534654
589.0411163
588.780623
588.4896029
588.1644008
587.7921345
587.3820103
586.9243483
586.4118409
585.8366148
585.1902754
584.4622876
583.6396531
582.7090072
581.6585842
580.473832
579.1354369
577.6202332
575.8994582
573.9446468
571.7244916
569.1991731
566.3216173
563.0262735
559.2378348
554.8561892
549.7563305
543.7837218
536.7726458
528.5372322
518.8534184
507.4796511
494.1200195
478.3715368
459.7502575
437.7453117
411.8654485
381.6322659
346.5807551
306.416264
261.2683997
211.0716136
156.674176
97.15079427
43.98803348
590.2461253
590.0890781
589.9612601
589.7960066
589.630281
589.466637
589.2793674
589.0538255
588.7835988
588.4690624
588.1279493
587.7473358
587.3240142
586.8515084
586.3230429
585.7308835
585.0652874
584.3144584
583.4656583
582.506638
581.4240415
580.1999389
578.8119819
577.2349697
575.4432359
573.4121186
571.1062278
568.4862611
565.4967807
562.0625249
558.0891173
553.4583309
548.0099366
541.5990942
534.0337196
525.1109448
514.5679786
502.0860545
487.2390491
469.5002887
448.3067385
423.1039704
393.343506
358.4375882
317.9650751
271.8545864
220.2082888
164.0446383
101.8710829
46.11412001
590.3994684
590.2420641
590.1164788
589.9535672
589.7932539
589.6365877
589.4614184
589.2592182
589.0155313
588.7370624
588.4291124
588.0893157
587.712798
587.293275
586.8244946
586.2995313
585.7095076
585.0434845
584.289492
583.4358213
582.4698894
581.3748317
580.1292212
578.7089664
577.0938546
575.2651649
573.1936718
570.8503935
568.1896415
565.1375309
561.6087922
557.4871487
552.6133941
546.8422027
539.9759894
531.8223503
522.1475891
510.639096
496.8096159
480.0559523
459.758143
435.3054796
406.056936
371.3147589
330.511587
283.3959567
230.1320302
172.0740575
106.9778011
48.39303947
590.5854928
590.4338105
590.3180135
590.1678623
590.0249469
589.884153
589.730429
589.5539199
589.3418811
589.0962967
588.8199334
588.517313
588.1857485
587.8190193
587.4110588
586.9556895
586.4450621
585.8691687
585.2166957
584.4760812
583.6348121
582.6758988
581.578896
580.3222094
578.8855438
577.2589232
575.4223564
573.3606906
571.0355992
568.3769883
565.3108487
561.7205838
557.450389
552.3491287
546.2920146
539.0171447
530.2869537
519.7717989
506.9540437
491.1950259
471.8148697
448.1267751
419.4015065
384.8091509
343.6964597
295.6200458
240.6971639
180.6395322
112.4720129
50.88869453
590.7838197
590.6333789
590.5205816
590.3769357
590.2394271
590.1153611
589.980402
589.8266021
589.6421089
589.4343743
589.1966961
588.9376765
588.6575936
588.3506612
588.0110879
587.6335167
587.2111025
586.7346462
586.1933945
585.575504
584.8690924
584.0569742
583.115381
582.0257147
580.7699628
579.3381037
577.7281248
575.9394315
573.9525572
571.7093407
569.1316486
566.0890978
562.4162855
557.9564094
552.5689387
546.0791571
538.2935636
528.9030822
517.2310678
502.5327212
484.0958867
461.171009
432.9291125
398.4556396
356.9604674
307.9052753
251.2934938
189.1076934
117.8729214
53.32669185
591.0047028
590.8587447
590.7559581
590.621939
590.4997386
590.3917746
590.2773144
590.1482135
589.9927898
589.8197533
589.6213446
589.4070198
589.1788258
588.9322568
588.6624551
588.3650469
588.0342476
587.6617488
587.2375723
586.7501191
586.1864025
585.5276432
584.7448194
583.8182508
582.7341988
581.4832555
580.0680259
578.5088487
576.817611
574.9718433
572.8909267
570.4381263
567.4594027
563.7811823
559.1945532
553.5289687
546.5845335
538.1031321
527.4308032
513.7664163
496.2581704
474.0594944
446.2547274
411.8690116
369.9751538
319.9936484
261.7858238
197.5144839
123.2696668
55.80331935
591.2316545
591.0882345
590.9907438
590.8660328
590.7565589
590.6640713
590.5692057
590.4640973
590.3370451
590.1984345
590.0403471
589.8727321
589.6987917
589.5152427
589.3183682
589.1049422
588.870443
588.6074944
588.3081023
587.9606088
587.547128
587.0467411
586.4274754
585.6611863
584.7367558
583.6488475
582.4150415
581.0808816
579.6907422
578.238794
576.6222676
574.6578057
572.1716897
568.9716826
564.9291265
559.9318918
554.1513653
547.0118696
537.56154
524.8839612
508.2126322
486.6548411
459.1947387
424.7612831
382.3605958
331.3441026
271.5187506
205.1574229
128.1386577
58.01946468
591.473855
591.3336462
591.2424989
591.1274229
591.031176
590.9552388
590.8805702
590.8001044
590.7015509
590.5970837
590.4788402
590.3573265
590.2369615
590.115804
589.9914698
589.8621835
589.7247035
589.5741121
589.4049633
589.2009616
588.9426576
588.6070497
588.158549
587.5503591
586.7522535
585.7613569
584.6029684
583.3773067
582.2136602
581.1693473
580.128852
578.8787595
577.2132696
574.869221
571.5256415
566.8931063
561.4668638
555.0471539
546.7523166
535.238938
519.4731422
498.5456196
471.4033139
436.9301714
394.0528982
342.0973988
280.7733127
212.4317144
132.7671049
60.17011937
591.719424
591.5819805
591.4964149
591.3902767
591.3058998
591.2454205
591.1896635
591.1323138
591.0614256
590.9898164
590.909869
590.8331115
590.7650501
590.7049606
590.65181
590.6055348
590.5642063
590.5277385
590.4909251
590.4332441
590.3361447
590.1754619
589.9072471
589.4750277
588.8311435
587.9613791
586.9139166
585.7936426
584.8208214
584.0637113
583.3373356
582.4364474
581.1010177
579.1360721
576.137998
571.9018782
568.5675217
563.7032079
556.1539019
545.3990823
530.4203974
509.9962418
483.0227716
448.3876195
404.925239
351.9102785
289.0850545
218.8620289
136.8974024
62.03998217
591.9703584
591.8357929
591.7557947
591.6585765
591.5853909
591.5401549
591.5027361
591.4673122
591.4229423
591.3826824
591.3389831
591.3044206
591.2856785
591.2832459
591.2974583
591.3301379
591.3811456
591.4546569
591.5458657
591.6334116
591.701485
591.7136824
591.6113375
591.3147569
590.7419412
589.8319274
588.6077804
587.3393296
586.6602062
586.5419981
586.6126056
586.4878724
586.0138181
585.0063039
582.2646377
576.333998
573.3256775
570.1731795
564.0596836
554.442422
540.2948728
520.3819027
493.6987367
459.0254434
415.1446384
361.2351446
297.0516636
225.0930094
140.8689914
63.94846562
592.2212453
592.0891266
592.0140499
591.924753
591.8626534
591.8307367
591.8100936
591.7947944
591.774795
591.7631603
591.7527907
591.7567478
591.7827951
591.8326374
591.9079641
592.0124519
592.1479637
592.3223416
592.5315134
592.7620354
593.0013982
593.2073108
593.329713
593.2853904
592.9474741
592.2008468
590.9723273
589.4593573
588.6235012
588.5108938
588.7264217
588.8291955
588.5691706
587.6551055
585.7051404
582.4829547
580.4457731
577.5687249
572.1355979
563.2228757
549.6473193
530.2181538
503.7015587
468.8742513
424.5672004
369.7812173
304.3211725
230.6931041
144.4847585
65.57328434
592.4707912
592.3410409
592.2706507
592.1886279
592.1363247
592.1167539
592.1114586
592.1143574
592.1161957
592.1298568
592.1494142
592.1875041
592.2527377
592.3479882
592.4760415
592.6419512
592.8487187
593.1083177
593.411992
593.755441
594.117808
594.4592453
594.7125789
594.7908397
594.5557977
593.7570776
592.1047724
590.1003146
590.2088007
591.5569889
592.0263978
592.0885712
591.9466875
591.4177557
590.1618757
587.7459541
585.3694446
582.6928473
578.4092209
570.6011423
557.7980472
538.9055058
512.7284975
478.0112892
433.4937968
378.0975702
311.5523269
236.4216198
148.1006121
67.26645539
592.7159708
592.5882007
592.5219924
592.4464184
592.402676
592.3939923
592.4019488
592.4207648
592.4414956
592.4768683
592.521701
592.5885374
592.6863918
592.8187691
592.9891408
593.2036139
593.466286
593.79254
594.1749038
594.6193838
595.1130408
595.6279563
596.1118742
596.4898933
596.6275663
596.0027028
594.3747315
591.0636321
591.645809
592.2580046
593.5704842
594.3779289
594.5289202
594.2376438
593.3646558
591.6477252
590.0632213
588.0684207
584.4749627
577.3623244
565.0911617
546.6509051
520.6639982
486.0765752
441.4475112
385.576583
318.1148546
241.6122561
151.462132
68.7592474
592.9548466
592.8287869
592.7663496
592.696289
592.6599999
592.6607176
592.6801681
592.7125928
592.7489112
592.802424
592.8672983
592.9569397
593.0803796
593.2410144
593.4423382
593.6902379
593.9887183
594.3506845
594.7693837
595.2413718
595.7479114
596.2510005
596.6853674
596.9695573
596.9765481
596.4414886
595.0866684
593.4305922
593.8939163
595.6279103
596.5225896
597.0420206
597.3807842
597.5651655
596.9741357
595.306849
593.9792319
592.2608627
588.8119502
582.1166954
570.3930524
552.5027123
527.1219651
492.9420289
448.4544796
392.4100021
324.2937553
246.5592164
154.8008797
70.32568605
593.1855848
593.0609354
593.0015971
592.9360779
592.9059473
592.9144121
592.9431485
592.9866476
593.0352274
593.1027078
593.1827042
593.2892342
593.4309868
593.6108017
593.8317563
594.0991155
594.4166261
594.7940995
595.2307634
595.7154463
596.2396046
596.7644486
597.2438453
597.6016696
597.7175266
597.4856563
596.868982
596.005027
595.9179273
596.6368192
597.6627209
598.8262126
599.2541833
600.0440654
599.2472533
597.1476455
596.9621462
595.7010778
592.2514222
585.5688442
574.1244516
556.6389088
531.6921277
497.834899
453.5322638
397.4657524
328.967773
250.3344066
157.4116238
71.47493971
593.4066904
593.2831878
593.2265134
593.1644239
593.1394516
593.1541085
593.1901784
593.2422609
593.3000102
593.377423
593.4682973
593.5863062
593.7395498
593.930241
594.1607138
594.4351344
594.7560687
595.1307773
595.5585759
596.0219996
596.5102523
596.9917748
597.4149196
597.7078824
597.7966638
597.6298913
597.2386117
596.894988
597.2640908
598.3099834
599.5159873
600.9011947
601.0780309
602.403629
601.7315414
597.5230925
598.0556003
597.3770633
593.7396538
586.9431178
575.6684681
558.5085266
534.0093499
500.6035454
456.6587931
400.8137385
332.2311148
253.1002126
159.3694412
72.33561946
593.6167863
593.4939663
593.4391867
593.3795516
593.3582219
593.3771976
593.4184534
593.4763944
593.5401101
593.623603
593.7209912
593.8451435
594.0034689
594.1974966
594.4287512
594.7001236
595.013113
595.3716812
595.7752934
596.2084283
596.658009
597.1075057
597.5200319
597.8480765
598.0571883
598.1326401
598.1415557
598.2041671
598.5589908
599.2724722
600.1033082
600.9873418
601.3271182
601.7435302
601.5484462
599.6083009
599.0494411
597.3718539
593.3043322
586.1478257
574.7277924
557.6008984
533.258882
500.0981374
456.4529818
400.8931802
332.5081637
253.4022252
159.6158983
72.45753484
593.8154041
593.6932929
593.6400933
593.5824788
593.5641165
593.5862289
593.6311328
593.6926377
593.7601959
593.8469348
593.9470807
594.0729165
594.231144
594.422478
594.6475784
594.9081564
595.204995
595.5378936
595.906653
596.3009842
596.7078293
597.1121892
597.4867634
597.7992563
598.0251689
598.1573786
598.2535402
598.4197998
598.7952911
599.4503061
600.222623
600.9396661
601.349374
601.4629606
600.9369249
599.4387267
597.9316711
595.4885116
590.9304532
583.2468598
571.3465659
553.9344696
529.5108793
496.4473736
453.0477793
397.8753311
330.0132094
251.5145165
158.4201061
71.91261724
594.000648
593.8784657
593.8255245
593.7684039
593.7512707
593.7745165
593.8205069
593.8827696
593.9514302
594.0381017
594.1372239
594.2608261
594.4147331
594.5986963
594.8124401
595.0566696
595.3313353
595.6341819
595.9630417
596.3128951
596.6728067
597.0304002
597.3626512
597.6563178
597.9006207
598.0956384
598.2890241
598.5364031
598.8856359
599.3506604
599.8329791
600.1940012
600.2769468
600.0297368
599.249331
597.7236009
595.480856
592.0533446
586.5895769
578.0467669
565.3517823
547.2764031
522.389784
489.090077
445.72077
390.9187453
323.84308
246.5612991
155.1401469
70.3946868
594.1747494
594.0531299
594.0011164
593.9459328
593.9297311
593.954021
594.0005973
594.0629163
594.1313369
594.2158924
594.3114001
594.4296235
594.5755343
594.7479614
594.9458317
595.1690449
595.4166533
595.6857895
595.9726468
596.2726131
596.580251
596.8850281
597.1675086
597.4176283
597.6320526
597.8055627
597.9630168
598.1327541
598.333163
598.5600938
598.743697
598.7559821
598.436964
597.6869366
596.3360134
594.1935103
591.1323854
586.7820283
580.2869416
570.6847695
556.9591522
537.9617781
512.3404833
478.5711541
435.1091622
380.711196
314.7182434
239.2701958
150.2901121
68.16262765
594.3333346
594.2103894
594.1562108
594.1007893
594.081939
594.1041734
594.1480314
594.2074553
594.2725632
594.3519194
594.4417327
594.5532078
594.6897374
594.8490954
595.0295106
595.2301689
595.4492991
595.6833788
595.9279496
596.1782356
596.4301022
596.6751405
596.898282
597.0892814
597.24164
597.3528995
597.4331616
597.4928099
597.5272836
597.49469
597.3226717
596.9035177
596.091412
594.7685451
592.7704526
589.8880061
585.8756674
580.3404754
572.549022
561.6302605
546.6110251
526.4138658
499.78836
465.311861
421.6268761
367.6260136
302.9351966
229.7769551
143.9726724
65.25471582
594.4856318
594.3630853
594.3097495
594.2519311
594.2363855
594.2607482
594.3034066
594.3612198
594.4236299
594.4928056
594.5749927
594.6778271
594.8018526
594.9445366
595.1040524
595.2789695
595.4667087
595.6630705
595.8630924
596.0620687
596.2553237
596.4343291
596.58741
596.7011707
596.7652255
596.7771694
596.7284375
596.6130945
596.4063814
596.0465939
595.4629693
594.5513917
593.1630902
591.1906914
588.3614717
584.5633755
579.4826849
572.7016243
563.5629821
551.2273933
534.7833923
513.2412805
485.4821011
450.2195092
406.306047
352.8364082
289.6852766
219.1216346
136.9797965
62.06088628
594.6151907
594.4901495
594.4320283
594.3699546
594.3471645
594.3646498
594.4058277
594.4574406
594.5111908
594.5713165
594.6482734
594.7448641
594.8587168
594.9870525
595.1279484
595.2794697
595.4380821
595.5988732
595.7561746
595.9049984
596.040162
596.1529569
596.2295743
596.2547934
596.2161389
596.1037446
595.896466
595.5746624
595.1000751
594.4067381
593.4090932
591.997543
590.015738
587.3248176
583.693045
578.9156861
572.6871655
564.5953558
554.0218363
540.1871698
522.242722
499.2881549
470.330486
434.27601
390.1491491
337.3471984
275.8813927
207.8042817
129.6557743
58.73735796
594.7447541
594.6213374
594.5648352
594.5078133
594.4890552
594.5120085
594.5533433
594.5993487
594.6421305
594.6920454
594.7580931
594.8424106
594.940757
595.0500211
595.1683433
595.293083
595.4200215
595.5432919
595.6566832
595.7545301
595.8303287
595.8733586
595.8690984
595.7995878
595.6471235
595.3942307
595.0115455
594.4652826
593.7069989
592.6628462
591.2333929
589.2986961
586.6962227
583.2625461
578.7823037
573.0177647
565.6480368
556.2550934
544.2641377
528.960931
509.5607691
485.244963
455.154116
418.3850026
374.1636262
322.1491498
262.4737153
196.7863686
122.57403
55.55362633
594.8512961
594.7223843
594.6574269
594.5901134
594.5614749
594.574942
594.600758
594.6236951
594.6626995
594.7155006
594.7776417
594.8607589
594.9516745
595.0492649
595.1521266
595.257081
595.3588444
595.4508683
595.5258465
595.5779402
595.5990993
595.5773006
595.4959214
595.3330724
595.0675847
594.6731561
594.1148961
593.3486591
592.3119149
590.9252943
589.0836948
586.6461482
583.4528666
579.3214619
574.0303921
567.3096749
558.8504276
548.2399517
534.9279344
518.2518545
497.4954057
471.9351397
440.8281431
403.4486975
359.2300099
308.1108993
250.2210902
186.6895514
116.0903816
52.6363997
594.9652104
594.8401294
594.7798657
594.7210338
594.7024644
594.7205958
594.7359026
594.7589472
594.7946504
594.8372489
594.8905794
594.9483839
595.0210831
595.0970114
595.1779238
595.2584109
595.3317563
595.3904382
595.4274202
595.4357827
595.4046372
595.3199085
595.163602
594.9119475
594.537851
594.0073862
593.2820091
592.3057503
591.0120547
589.3072501
587.0841496
584.1899333
580.4479666
575.6701119
569.6129884
562.0209407
552.5802842
540.8726064
526.3772094
508.4842352
486.5431616
459.9234463
427.9686964
390.1200925
345.9761567
295.5763161
239.3501619
177.913908
110.4442592
50.09248081
595.053379
594.9154101
594.834924
594.7619457
594.7282175
594.7156963
594.7112675
594.7313447
594.764114
594.8048918
594.8569133
594.9187454
594.9874122
595.064438
595.1386895
595.2077846
595.2643155
595.3010003
595.3098896
595.283147
595.2092759
595.0743237
594.8560738
594.5286931
594.0593146
593.4126568
592.5404576
591.3846977
589.8640965
587.8899358
585.3285563
582.0352719
577.832947
572.4899221
565.7928867
557.4749143
547.2180608
534.5831229
519.0963592
500.2099244
477.3087477
449.8284949
417.2224242
379.0460456
335.0045927
285.1266776
230.0444133
170.6334602
105.7543883
47.9636409
595.1699188
595.0356965
594.9700721
594.9175139
594.8777072
594.8555746
594.8555862
594.8663084
594.8845703
594.9131213
594.952446
595.0000443
595.0536559
595.1106311
595.1663726
595.2138355
595.2481393
595.2598947
595.2411739
595.1836032
595.0745575
594.8945298
594.6253105
594.2351149
593.6907793
592.9470555
591.9586236
590.652743
588.9558127
586.7553344
583.9345412
580.3251657
575.7575722
569.9931618
562.8130758
553.9091818
543.0743558
529.7171894
513.4612343
493.8217849
470.1897807
442.083752
408.9970085
370.619885
326.6953357
277.3286489
222.8171863
164.3272219
102.128543
46.25396208
595.2558052
595.038653
594.9437746
594.8749739
594.8186462
594.7867573
594.7802375
594.7922481
594.8173861
594.8535288
594.8991679
594.9521969
595.0096177
595.0684143
595.124179
595.1703169
595.1990766
595.2010531
595.1666697
595.0893399
594.9576338
594.7524076
594.4492096
594.0179915
593.4183213
592.6097278
591.5362409
590.1315382
588.3079674
585.954848
582.9448288
579.1126662
574.2787701
568.2133029
560.6867979
551.3899681
540.1376678
526.2821879
509.5053886
489.3343609
465.2255708
436.6954713
403.3191478
364.8019377
320.986534
271.9542468
218.0200991
160.0245621
100.0842802
44.68114801
595.4455952
595.1421066
595.0902048
595.0519405
594.9710611
594.9108378
594.8898965
594.8902177
594.9020475
594.9250377
594.9589664
595.0014064
595.0489796
595.0981563
595.1446344
595.1817238
595.2003679
595.1902163
595.1436692
595.054458
594.9071903
594.6849095
594.3663394
593.9176473
593.2950484
592.453746
591.3402633
589.8871195
588.0007909
585.569789
582.4695354
578.5285653
573.5625563
567.3307726
559.6361666
550.1643637
538.6272714
524.5915065
507.5920171
487.1686409
462.8237017
434.0958022
400.5821104
362.013082
318.2796899
269.5117009
216.1205372
159.0428655
100.1237556
45.15779687
589.8904101
589.6066199
589.4117764
589.2558783
589.0278229
588.7718125
588.5004204
588.1976225
587.8522011
587.4606904
587.01947
586.5232121
585.9645316
585.3361182
584.6293652
583.8333415
582.934654
581.9190127
580.7705946
579.4775648
578.021205
576.3798071
574.5184597
572.4099669
570.0077764
567.2685463
564.1390589
560.5544595
556.4353125
551.6840298
546.1899575
539.8042861
532.3835764
523.7107584
513.694574
502.0587082
488.5590543
473.0515774
455.0436832
434.192278
410.1427271
382.601339
351.310704
316.0681574
276.7874362
233.5718728
186.7892645
137.653817
85.84645883
38.38710449
589.7545962
589.5415966
589.3313937
589.0968823
588.9039903
588.6836048
588.4242393
588.1326167
587.8031553
587.4279191
587.001863
586.5203929
585.9775027
585.3655518
584.6754358
583.8963989
583.0155087
582.0195393
580.8942538
579.6239241
578.1899424
576.5684221
574.7354439
572.6519921
570.2824241
567.5829264
564.4985735
560.9665499
556.910087
552.2329655
546.8220853
540.5411843
533.2333471
524.7232248
514.8285784
503.3117665
489.9802016
474.6114363
456.7766433
436.0869244
412.1882663
384.7764995
353.5751665
318.3407046
278.9534769
235.4503313
188.0707041
137.0410165
87.85027941
38.39182623
589.7544806
589.6205063
589.4579607
589.2433318
589.0418059
588.8351294
588.5941056
588.3079433
587.9756201
587.5977614
587.1721939
586.6937966
586.1553374
585.5503584
584.8688427
584.1021698
583.23726
582.2611131
581.1605159
579.9189797
578.5182858
576.936945
575.1445898
573.1149813
570.8069778
568.1794823
565.1778846
561.7447799
557.8035508
553.2640355
548.009774
541.9238895
534.8327427
526.5572736
516.9056827
505.6543698
492.6168688
477.5352407
460.0205777
439.6409843
416.0380777
388.8782637
357.8497427
322.643199
283.1038711
239.2480673
191.382512
139.9036563
90.82703608
40.07618264
589.7722968
589.6430077
589.4862068
589.2600789
589.0076672
588.8000904
588.5851657
588.322025
588.010445
587.6542406
587.2534988
586.803427
586.2971718
585.7282312
585.0855317
584.357427
583.534534
582.6052742
581.5549816
580.369149
579.0299438
577.5154005
575.8016002
573.8578107
571.6507161
569.1390369
566.2754191
563.0029639
559.2517477
554.9342119
549.9453483
544.1589907
537.4371836
529.5777361
520.3798319
509.6201935
497.0865284
482.5476913
465.5869398
445.7696979
422.6924889
395.9932279
365.2653053
330.1549946
290.4273846
246.0806725
197.665153
143.2512363
92.85611388
41.45845481
589.8540556
589.7459296
589.6148401
589.429281
589.213678
588.9890496
588.7902232
588.552819
588.2593666
587.914417
587.5262941
587.0898576
586.6035298
586.0544916
585.4386047
584.7464667
583.9661813
583.0853082
582.0908928
580.9689134
579.7026005
578.2705054
576.6492721
574.811796
572.7270505
570.3579721
567.6617304
564.5873254
561.0695232
557.0258095
552.3576643
546.9444616
540.6383954
533.2485244
524.5623931
514.355959
502.4963463
488.6638541
472.4236802
453.3167541
430.9127832
404.7809248
374.4526711
339.4866598
299.5481856
254.5154424
205.348788
148.4449788
95.43103771
42.97888545
589.9491525
589.8410043
589.7115133
589.531181
589.3201601
589.0949095
588.8676355
588.6533633
588.3962358
588.0775452
587.7180669
587.3215619
586.8758965
586.3734964
585.807121
585.1684739
584.4478664
583.6339155
582.7141977
581.6749823
580.5001948
579.1708756
577.6652873
575.958287
574.0229427
571.8267914
569.3325323
566.4950848
563.2566801
559.5387666
555.2448418
550.2821304
544.475269
537.6523107
529.6032511
520.0745519
508.9648263
495.9518997
480.5697156
462.3130483
440.7158409
415.3279187
385.5367995
350.7954306
310.6433568
264.7279791
214.2133615
154.9776759
99.8426362
45.03005199
590.0898581
589.9896779
589.8742929
589.7151487
589.5335075
589.337603
589.1264638
588.9042064
588.6646274
588.3850404
588.0554537
587.6859787
587.273934
586.8118257
586.2927671
585.7093632
585.0523995
584.3103763
583.4718598
582.5241785
581.4520408
580.2375874
578.8606793
577.2988617
575.5280475
573.5224522
571.2497495
568.6740555
565.7466107
562.3917089
558.5216556
554.0612557
548.8296505
542.6353435
535.2657573
526.5436143
516.2936472
504.2010029
489.786063
472.4917966
451.8025057
427.2653894
398.1066801
363.6512999
323.313032
276.598903
224.4816662
162.725555
105.0635044
47.45113089
590.2438552
590.1442525
590.0308496
589.8763619
589.7015747
589.5207135
589.3234649
589.1135336
588.8854698
588.6371139
588.3513442
588.0262647
587.6613844
587.2523766
586.7933915
586.2779787
585.6977343
585.0423156
584.2998118
583.4579692
582.5028276
581.4178458
580.1842959
578.7812698
577.1885767
575.3864874
573.3510037
571.054591
568.458988
565.4923966
562.0854013
558.1677052
553.5518574
548.0142491
541.3647857
533.4715883
524.1288622
513.045332
499.6974746
483.4614116
463.7817524
440.1454317
411.6820858
377.5656505
337.0367956
289.5028484
235.6137383
171.1708595
110.754532
50.05565256
590.4300079
590.3357607
590.2317211
590.0916267
589.9358638
589.771439
589.6039918
589.4196176
589.2102178
588.9837411
588.7355016
588.4535464
588.1347651
587.7780963
587.3799781
586.9345063
586.4340396
585.8693265
585.2296303
584.5022339
583.6730067
582.7261432
581.6433515
580.4041258
578.9910414
577.3915916
575.5922179
573.579746
571.318997
568.7562867
565.8292846
562.4742843
558.5210204
553.7826916
547.9573085
540.9695603
532.5594186
522.4839553
510.1944727
495.0342538
476.3840574
453.669295
425.8962619
392.1235246
351.4042854
303.0055236
247.2557215
180.1679279
116.8906218
52.90236377
590.6286206
590.5355757
590.4345369
590.3017244
590.1526908
590.0075378
589.8592169
589.6993657
589.5172983
589.312872
589.1048872
588.8721201
588.6068501
588.3100136
587.9805698
587.6137127
587.2025189
586.7385265
586.2115305
585.6092249
584.9172361
584.118826
583.193047
582.1196949
580.88364
579.4816652
577.9092623
576.169301
574.2495433
572.1088111
569.6781088
566.8690066
563.4863341
559.331349
554.2315297
548.1103718
540.8250207
531.9842227
520.883613
506.831111
489.2090996
467.3676072
440.2079573
406.6943464
365.7474472
316.4340327
258.7389705
189.061756
122.9175728
55.66721275
590.8500632
590.7616104
590.669873
590.546914
590.4132542
590.2854038
590.1580505
590.0234686
589.8700146
589.6974599
589.5281089
589.3412516
589.1287745
588.8925976
588.6332672
588.3473208
588.0289349
587.6706849
587.2630334
586.7931539
586.2444649
585.5998612
584.8354627
583.9314092
582.866336
581.6381426
580.2555707
578.7402492
577.1181064
575.3824663
573.4558065
571.2373052
568.5680178
565.2307475
561.0146678
555.7078918
549.3387199
541.4788876
531.4738636
518.5145334
501.8849774
480.8106651
454.1802512
420.87928
379.722236
329.5634711
270.0544913
197.8609812
128.9141671
58.46530684
591.0771464
590.9912586
590.9042464
590.7913087
590.6703458
590.5585577
590.4510478
590.3406752
590.2157166
590.0761394
589.9461391
589.8062671
589.6487756
589.4761961
589.2903846
589.089408
588.8689238
588.6228663
588.3424377
588.0131524
587.6182933
587.1378343
586.5412482
585.8034919
584.8993942
583.8186358
582.5975444
581.294532
579.9680066
578.6391251
577.1841332
575.4361297
573.1738702
570.2396522
566.4415274
561.7810569
556.9980917
550.706518
541.9310703
529.9829016
514.2644273
493.8611526
467.6438175
434.3683647
392.7748602
341.6321423
280.4373752
205.8192538
134.3158345
60.97384019
591.3194711
591.2366515
591.155384
591.0526951
590.9448522
590.8501705
590.7628758
590.6771448
590.5811934
590.4752172
590.3845661
590.2909871
590.1875408
590.0778584
589.9652978
589.8496893
589.7285365
589.5976988
589.4486597
589.2671344
589.035357
588.7291459
588.3105345
587.731709
586.9549156
585.9564742
584.7612409
583.5209757
582.4169888
581.5256316
580.6796223
579.6521187
578.2385843
576.1290857
572.8220899
568.7097123
563.9187634
558.8674718
551.6063435
540.871025
526.0904173
506.3412622
480.4709021
447.1977593
405.1675128
353.0176625
290.2310587
213.2716822
139.3170983
63.28965769
591.5651487
591.485112
591.4091821
591.3155972
591.2198323
591.1404005
591.0725093
591.0100299
590.9415882
590.8680899
590.8156334
590.7668807
590.7160296
590.6679196
590.6274072
590.5962072
590.5741848
590.5595665
590.5441067
590.5160054
590.4580877
590.3402726
590.1161719
589.725657
589.099998
588.2110439
587.059387
585.8365687
584.8895148
584.3097704
583.8283094
583.1422834
582.0892014
580.321552
575.9096358
571.4727419
573.1769595
567.7726305
560.6320396
550.9940198
537.1633714
518.0042046
492.4441709
459.0138215
416.4042673
363.2050692
298.8828412
219.7981452
143.6552764
65.26549483