/*--------------------------------*- C++ -*----------------------------------*\
| =========                 |                                                 |
| \\      /  F ield         | OpenFOAM: The Open Source CFD Toolbox           |
|  \\    /   O peration     | Version:  2.2.1                                 |
|   \\  /    A nd           | Web:      www.OpenFOAM.org                      |
|    \\/     M anipulation  |                                                 |
\*---------------------------------------------------------------------------*/
FoamFile
{
    version     2.0;
    format      ascii;
    class       surfaceScalarField;
    location    "3";
    object      phi;
}
// * * * * * * * * * * * * * * * * * * * * * * * * * * * * * * * * * * * * * //

dimensions      [0 3 -1 0 0 0 0];

internalField   nonuniform List<scalar> 
265716
(
38.35029859
-1.274429311
-0.8309811508
-41.88298844
2.907671975
2.730428534
39.77420736
-0.8982426057
-0.1502346385
-0.07222166023
-0.3032096835
40.03364635
-0.1413150816
0.1181504825
-0.07987723041
-0.1563969772
40.0921923
0.0184619435
0.06101431665
-0.05815679653
-0.07986519647
40.11945643
0.03334976038
0.04063760628
-0.04759534703
-0.05365594317
40.13687972
0.03313763961
0.03668221756
-0.04198205293
-0.04526079314
40.15109413
0.03188041308
0.03412427882
-0.03871458459
-0.04150422808
40.16353026
0.03050142872
0.03209032369
-0.03601501874
-0.03901247928
40.17485718
0.02901555615
0.03048718714
-0.03351283051
-0.03731651508
40.1857623
0.02748473365
0.0291342834
-0.03150777219
-0.03601593998
40.1964265
0.02582777712
0.02776441862
-0.02978730873
-0.03446875388
40.20651289
0.02397176111
0.02643594042
-0.02790640837
-0.03258718151
40.21578652
0.02193998501
0.02536590718
-0.0258279181
-0.03075123432
40.22458818
0.01986303939
0.02473901186
-0.02399084771
-0.02941228117
40.23381873
0.01798194399
0.0248427273
-0.0229386575
-0.02911615606
40.24492871
0.0165278298
0.02585975069
-0.02317422374
-0.03032268935
40.25940193
0.01535113734
0.02747839572
-0.02464452396
-0.0326577919
40.27532899
0.01347525321
0.02861158735
-0.0250858858
-0.03292727717
40.28785484
0.009711879406
0.02800736312
-0.02142982534
-0.02881477468
40.29390003
0.003686856333
0.02572924841
-0.01392336799
-0.02153705215
40.29342661
-0.00372563896
0.02243871566
-0.004835028465
-0.01340405723
40.28710929
-0.01199085616
0.02043778941
0.003838438186
-0.005967065111
40.2767172
-0.01983935877
0.02094885352
0.01011626437
-0.0008331632281
40.26461963
-0.02618252656
0.02389890394
0.01313730406
0.001244821274
40.25180623
-0.03126085356
0.02940807723
0.01381148266
0.0008548989779
40.23830379
-0.03482283536
0.03509303628
0.01368930656
-0.0004564564795
40.22411044
-0.03812915649
0.04127955223
0.01328086284
-0.002238249025
40.20877237
-0.04110007581
0.04834289768
0.01248071994
-0.004385351981
40.19333636
-0.0440121315
0.0550588249
0.010997744
-0.00660875921
40.1800872
-0.04559533363
0.06087967348
0.006609438001
-0.008643499081
40.17620988
-0.04370142073
0.06946278142
-0.009645007541
-0.01223892739
40.19661499
-0.03527500687
0.0800916299
-0.04579689094
-0.01942485089
40.25993018
-0.0220856181
0.08694140948
-0.09875072784
-0.02942273635
40.34299057
-0.02217059803
0.09092664508
-0.1203840679
-0.03143344011
40.37297117
-0.06670297289
0.05633626384
-0.02180584908
0.002190832273
40.28502557
-0.09171050671
0.03032458375
0.05570985386
0.09362091084
39.90638005
-0.1220291149
0.02539030915
0.1542266317
0.3210568735
39.62357087
-0.1618131962
0.02500963352
0.2117871564
0.2078242853
39.49734418
-0.1573942382
0.05837015044
0.1463093592
0.07893918387
39.45422334
-0.1559103625
0.08646025058
0.1020272968
0.01054060771
39.44529549
-0.1525728064
0.1108938733
0.06645296584
-0.01584937715
39.44920251
-0.1504097074
0.1268251348
0.04384861246
-0.02417405748
39.45586202
-0.1498761399
0.1363670865
0.03334181501
-0.02649512036
39.46141335
-0.1503365895
0.1415290677
0.03012634656
-0.02687319201
39.46635808
-0.1502334008
0.1426680935
0.02938590357
-0.02676891544
39.46892044
-0.1476039274
0.1414044364
0.02933783281
-0.02570478679
39.47998763
-0.132220979
0.1235205635
0.02593170437
-0.02830107294
39.35179592
0.03182569983
0.05913210412
0.04453968335
-0.007305807825
38.38094472
0.8076153965
0.298879184
-0.04566745763
-0.08997706954
1.201952296
0.9332766815
41.11993605
-2.427949684
-2.446269649
44.83720893
-0.2640611845
-2.108914157
-47.9902007
4.251537982
43.1718755
0.2840696865
1.567648244
-1.084626968
43.0663505
0.02785270417
0.09683274719
-0.1604753618
43.08246796
0.03479717454
0.06609327786
-0.09854577977
43.10491595
0.04011794845
0.05232261557
-0.08153861303
43.12094275
0.04229797253
0.05284327836
-0.07803016999
43.13395382
0.04275390784
0.05378327772
-0.07766761365
43.14550052
0.04216862609
0.0547547251
-0.07796834389
43.15639272
0.040870884
0.05577505983
-0.07852235089
43.16702227
0.03906202618
0.05663391917
-0.07884045931
43.17721525
0.03684846857
0.05722210781
-0.07843552988
43.1866407
0.03426124711
0.05756139672
-0.07727597545
43.19537463
0.03127467764
0.05778051459
-0.0758488683
43.20395389
0.02793298668
0.05814426392
-0.07479306413
43.21309521
0.02450858397
0.05894914937
-0.07461682234
43.22369105
0.02116288222
0.06045403113
-0.07568448271
43.23689169
0.01749580807
0.06221670526
-0.07756171958
43.25205821
0.01240445193
0.06249003741
-0.07658528407
43.26662118
0.004787715617
0.05948081016
-0.06911931283
43.27764385
-0.004922959872
0.0531214313
-0.05553373767
43.28341644
-0.01520223251
0.04599261642
-0.04028827731
43.28468947
-0.02519135345
0.03943742479
-0.02750937752
43.28387454
-0.03531510372
0.03563368929
-0.0193427541
43.2824568
-0.04523563954
0.03448292896
-0.01401158676
43.28003589
-0.05433533561
0.03502349479
-0.009528083383
43.27519157
-0.06133311531
0.03748004001
-0.006125204861
43.2682846
-0.06678353754
0.04044641616
-0.004885432098
43.25814536
-0.07135451303
0.04643626314
-0.006042710906
43.24650411
-0.07554528978
0.05108038813
-0.007906368147
43.23258068
-0.08029556728
0.05883960236
-0.0102155618
43.22176286
-0.08602030712
0.06484195298
-0.01170550179
43.21913521
-0.09407513197
0.07526825837
-0.01384073035
43.23537848
-0.103913868
0.08216837777
-0.01658506956
43.26666053
-0.1163569269
0.07646805004
-0.01356475166
43.29015638
-0.1311227495
0.03679935544
0.004123341695
43.25391545
-0.1460922313
-0.0006946039224
0.09131587528
42.08991954
-0.1591724401
-0.01221928268
1.213357446
41.57549666
-0.1700178386
-0.0135977011
0.5362243246
41.39583734
-0.1822818879
0.01801859294
0.1865265092
41.35300023
-0.1942635148
0.04243474401
0.03875373525
41.35079514
-0.2045166822
0.06473772561
-0.01059098651
41.35618163
-0.212313497
0.08061252938
-0.02409719612
41.36099673
-0.2165421451
0.08987036605
-0.02802160409
41.36415683
-0.2186112206
0.09507594685
-0.02996341657
41.36685641
-0.2182397418
0.09673682972
-0.03143252416
41.36846881
-0.2152001549
0.0977558358
-0.03177457564
41.40049418
-0.2091893929
0.08001189003
-0.03507168457
41.60736184
-0.2096708947
0.04808084471
-0.0134542335
44.47800452
-0.4785748956
-1.452648179
-0.1318054203
0.08817309518
2.28352513
47.77473533
-4.466476695
47.43220734
-0.009834824772
-2.452790715
-49.3256504
4.092007613
45.07197035
0.0312189418
4.156018127
-1.542930224
48.8449204
-0.1474482846
-3.822228367
0.2245795123
48.81247132
-0.02622532445
-0.05187132761
0.1453431112
48.78462478
0.02742906272
-0.00352950596
0.04406516686
48.7828725
0.03445151533
0.02964705749
-0.02004807887
48.79396474
0.0346636662
0.046542515
-0.0495442404
48.80903163
0.03336477452
0.05386803485
-0.06013080655
48.82455359
0.03085119334
0.05689473857
-0.06239671166
48.83983188
0.0275704679
0.05837182989
-0.06215825978
48.85479164
0.02377675748
0.0594377114
-0.06132541834
48.86954368
0.01944919675
0.06043912645
-0.06037876914
48.88429553
0.01442958051
0.0614624533
-0.05936881821
48.89930874
0.008739997047
0.06267035247
-0.05849018015
48.91539225
0.002498741713
0.06406467614
-0.05813790664
48.9333751
-0.003907702524
0.06558741943
-0.05849926346
48.95436851
-0.01118198098
0.06657152574
-0.05888668365
48.9778601
-0.02051831625
0.06693977
-0.05750814501
49.00078309
-0.03206438358
0.06612628058
-0.05219667091
49.01859708
-0.04382818479
0.06415953645
-0.04306780552
49.02975587
-0.05513954206
0.06107963301
-0.03230055182
49.03604144
-0.0667838223
0.05802779766
-0.02272038939
49.03928445
-0.07912735761
0.05691567853
-0.01634594955
49.04006939
-0.09127374935
0.05828351574
-0.01302998554
49.03729478
-0.1023388849
0.06170831143
-0.01092989964
49.0304578
-0.111206141
0.06611417881
-0.009404137624
49.0196993
-0.1185338454
0.07168061367
-0.009171925381
49.00572816
-0.124871886
0.07816479627
-0.01067655009
48.98914998
-0.1308111517
0.0851347463
-0.01329086725
48.97086142
-0.137483469
0.09089671167
-0.01542039296
48.95320554
-0.1458433399
0.09443620921
-0.01695755715
48.94087472
-0.1567111976
0.09247360044
-0.01750756289
48.94020822
-0.1704186684
0.08471591682
-0.01754600307
48.95604445
-0.1878006382
0.06731075022
-0.01170472966
48.98738955
-0.2086013796
0.04299386863
0.003137486806
49.00284672
-0.2344291831
-0.01473855462
0.08761649131
47.98864524
-0.2573207008
-0.1289857766
1.2413341
47.58238241
-0.2760264789
-0.03791126873
0.5501811326
47.45602011
-0.2992398706
0.04752346074
0.195794684
47.43811866
-0.3198713728
0.09581587253
0.047690996
47.44878561
-0.3368676577
0.1228435299
-0.001162015791
47.46105353
-0.350551356
0.1409582903
-0.01499110563
47.47060387
-0.358667966
0.1519068477
-0.01933409717
47.47772786
-0.3640095666
0.1599498777
-0.02167857292
47.48510458
-0.3653880955
0.1633881384
-0.02361973945
47.48195244
-0.3583616
0.170467411
-0.0241576293
47.43874607
-0.2976116434
0.1640376673
-0.03241324825
42.66980361
-0.132196732
4.698054744
-0.006590410638
46.70816937
-0.2945981047
-4.106631248
-0.1157121047
-0.2413629279
2.61379641
49.02146427
-4.597555509
47.85962936
0.004179219341
-2.521702491
-49.37251652
4.020575819
45.07465658
0.009528345298
4.22681968
-1.420156144
51.96635428
0.009021588381
-7.809912728
0.761745349
52.37859626
0.01464436212
-0.9655200186
0.5124085376
52.26479579
0.02605310131
-0.1029406468
0.2181172656
52.23914773
0.03020149603
-0.005646300812
0.03554460326
52.24265329
0.02895600176
0.03792634987
-0.03572402733
52.25593667
0.02668840834
0.05328707765
-0.05989386265
52.27116428
0.02348770292
0.05969172184
-0.06755561623
52.28586431
0.01932054307
0.06266481095
-0.06911465697
52.29996931
0.01431473358
0.06430007237
-0.0689427941
52.31373818
0.008571330422
0.06557663272
-0.0684673465
52.32734174
0.002090102057
0.06675846803
-0.06802226373
52.34154364
-0.005768875618
0.06775065797
-0.06744336663
52.35678504
-0.01444336011
0.06859931152
-0.0668983009
52.37402902
-0.02393558799
0.06938107968
-0.06659683717
52.39392894
-0.03469963475
0.06998452194
-0.06636648264
52.41558744
-0.04714656922
0.06967476693
-0.06470468759
52.43621869
-0.06099589357
0.06788406239
-0.05958350268
52.45305491
-0.07486850741
0.06435153556
-0.05014709649
52.46535171
-0.08883037941
0.05990913616
-0.0385147968
52.47398269
-0.1033806093
0.0561401599
-0.02817402792
52.48058665
-0.1185565012
0.05413888419
-0.02131349944
52.48560429
-0.1334563881
0.05428881201
-0.01712363712
52.48819458
-0.1466430628
0.05546294927
-0.01374911387
52.48740957
-0.1570841784
0.05777210703
-0.01110919892
52.48304058
-0.1654049249
0.06163118635
-0.01039148067
52.47467858
-0.1720816612
0.06740353798
-0.0118321559
52.4624488
-0.1776997275
0.07367850657
-0.01456077085
52.44661704
-0.1838833188
0.07894544834
-0.01671394867
52.43003543
-0.1914444278
0.08011237704
-0.01793056468
52.41508754
-0.1985204732
0.0745066485
-0.01775064638
52.41377774
-0.2146918856
0.06167561634
-0.01609418055
52.42586948
-0.2316631162
0.03705531364
-0.005286137339
52.44404706
-0.2521996799
-0.004163856503
0.02958293816
52.43135467
-0.2766064573
-0.08714400976
0.1420121109
52.28384917
-0.3013297653
-0.2511008533
0.4426136589
52.20951597
-0.3261849604
-0.1528175906
0.2773076572
52.20123444
-0.3534427345
-0.05178695891
0.1142689657
52.22256006
-0.3787582096
0.003738379381
0.03382071834
52.25212666
-0.401802183
0.02925378494
0.006111320991
52.27403807
-0.4147119358
0.04461277983
-0.002366140975
52.29196324
-0.4245781311
0.05355355945
-0.005571435392
52.30676491
-0.4314704187
0.06049152782
-0.007835277326
52.32075318
-0.4337319683
0.06433512274
-0.009982512592
52.33778817
-0.430684274
0.06601103792
-0.01072646868
51.60508321
-0.4125490432
0.8669674983
-0.01932908397
42.68758405
-0.3630344022
9.140568057
0.007765341197
47.04145677
-0.3195606438
-4.22275336
-0.1061582585
-0.2944441947
2.650284707
49.04977811
-4.605525007
47.90798806
0.00336297011
-2.523527061
-49.38685609
4.003211571
45.06905112
0.006929329015
4.229542917
-1.3880068
51.98400702
0.01277594014
-8.007527293
1.088817234
53.06983338
0.01696581955
-1.823438503
0.7352908571
53.845138
0.02087390425
-1.09273201
0.3226067757
53.81401621
0.02289047574
-0.03455272586
0.07298574757
53.81698041
0.02143249607
0.02920612404
-0.02464660737
53.82983257
0.01819238088
0.0498641321
-0.05422003162
53.84613884
0.01392123454
0.05667966707
-0.06341922927
53.86267895
0.008766893737
0.05910344331
-0.06508963053
53.87914865
0.00248794394
0.06003917227
-0.06468179539
53.89562562
-0.004465917043
0.06071664831
-0.06415606135
53.91237226
-0.01252192376
0.06128977258
-0.06342405909
53.92946789
-0.02201707855
0.06180000455
-0.06264708513
53.94760059
-0.03284300987
0.06230087253
-0.06203357788
53.96776666
-0.04508990055
0.06286447598
-0.06187587927
53.99062139
-0.05902866515
0.06326227615
-0.06178764509
54.01552159
-0.07481062681
0.06296365504
-0.0601994603
54.0399305
-0.09198159078
0.06165314276
-0.05507605995
54.06102759
-0.1093926302
0.05936471864
-0.04593737156
54.07770662
-0.1268626483
0.05619973019
-0.03484620618
54.09075557
-0.1446098531
0.05326897946
-0.02508841806
54.10171881
-0.1625567603
0.05183165103
-0.01879447564
54.10975527
-0.1791298211
0.05265738472
-0.01502034959
54.11433633
-0.1945350889
0.05498047598
-0.01166965848
54.11396948
-0.2060683624
0.05852481779
-0.009174059409
54.10879246
-0.2152423902
0.06356085548
-0.008546834419
54.09853752
-0.221323817
0.06970770339
-0.01021125637
54.08397779
-0.225992852
0.07594770307
-0.01309499808
54.06569201
-0.2300914278
0.07984746047
-0.01535435632
54.04666119
-0.2361000497
0.07993644464
-0.01625155989
54.03557593
-0.2439082643
0.07242637008
-0.01595495882
54.03268741
-0.2544972635
0.0560272295
-0.01333534428
54.04579653
-0.2681195383
0.02889147303
-0.005546008021
54.07445558
-0.2857971014
-0.01212078563
0.01705735342
54.10583888
-0.3068144526
-0.07132010544
0.07014208341
54.11664841
-0.3291944683
-0.1330907291
0.1501438242
54.13870077
-0.353836993
-0.1041297427
0.1097259666
54.17358209
-0.3808653876
-0.06135598176
0.0538950344
54.21255256
-0.4079472795
-0.03407920905
0.02429337579
54.24500459
-0.4318831411
-0.01562372679
0.01324943776
54.27322907
-0.4519220174
0.0005720620485
0.008409582831
54.29696079
-0.4648541081
0.01095563986
0.00558440087
54.31674357
-0.4737054602
0.01947316615
0.002974900619
54.33514192
-0.478637914
0.02632756908
0.0001748999004
53.40008555
-0.4702925394
0.9747214643
-6.043918483e-05
51.83238035
-0.4467959881
1.609721001
-0.007772680448
42.69788488
-0.390796803
9.140568356
0.02168636547
47.06493498
-0.3339426143
-4.25831202
-0.09435770752
-0.3060046766
2.606856141
49.07557531
-4.605936185
47.9155161
0.001981166076
-2.523562687
-49.39009056
3.999519206
45.07023758
0.004180725631
4.228256555
-1.380229245
51.92437667
0.008051728044
-8.085491116
1.23607642
52.99657166
0.01062982127
-1.898912896
0.8330540809
54.69552181
0.01283207509
-2.057194362
0.3662862244
55.09282194
0.01417653482
-0.4745244875
0.08593850501
55.09941066
0.01385432423
0.02312619414
-0.02213651431
55.11200792
0.01061997743
0.04871005783
-0.05373465769
55.12717205
0.005719171684
0.05682627358
-0.06378806751
55.14160627
0.0002200242213
0.05996920575
-0.06585624066
55.15543718
-0.007260296865
0.06148316296
-0.06556548481
55.16907782
-0.01564729018
0.06250267828
-0.06496156726
55.18301128
-0.02544907325
0.0633728843
-0.06437878556
55.19746519
-0.03684653689
0.06402356069
-0.06364758188
55.21302805
-0.04994207142
0.06449903705
-0.06296239139
55.23053599
-0.06490173569
0.065003053
-0.06269871138
55.25057028
-0.08192729544
0.06546669381
-0.06260192402
55.2726145
-0.1009346126
0.06518511865
-0.06110494643
55.2947255
-0.1214306921
0.06337932954
-0.05604084451
55.31473062
-0.1427771141
0.0601073181
-0.04672756929
55.33164966
-0.1646143233
0.05621976529
-0.03538676867
55.34650805
-0.1869069471
0.05306802374
-0.02562897695
55.36048476
-0.2090505085
0.05178459543
-0.0192673499
55.37330094
-0.2291733218
0.0521658778
-0.01493848592
55.3831796
-0.2470211515
0.05383734835
-0.01123008896
55.38900926
-0.2597808945
0.05625645939
-0.008373894506
55.38955124
-0.268847092
0.06090441756
-0.007842198192
55.3838548
-0.2727165915
0.06640539975
-0.009316514918
55.47407176
-0.2752734727
-0.0283932261
-0.01254385241
55.4574697
-0.2761200443
0.07699993834
-0.01437032807
55.21996342
-0.2752582275
0.2917455355
-0.01508313799
55.06503172
-0.275807552
0.2008665575
-0.01403778794
55.05032872
-0.2797274508
0.05080487339
-0.01087411333
55.06223723
-0.2871056472
0.01204348336
-0.004967979921
55.08732746
-0.2979677642
-0.0199148843
0.006992172297
55.13992614
-0.3116126554
-0.07590386348
0.02810085197
55.20235239
-0.3272175674
-0.1155716483
0.05116460138
55.25996466
-0.3458251933
-0.1098412443
0.04421356382
55.30850219
-0.3685280698
-0.09281765498
0.03193671381
55.35359742
-0.393516839
-0.0858874758
0.02635785901
55.53744498
-0.4188292508
-0.2210242664
0.02411771011
55.79793628
-0.4449011041
-0.2888771893
0.02135922655
55.82497057
-0.4625302213
-0.04821651698
0.01885210865
55.74835908
-0.4720314596
0.05855387084
0.0163765927
55.3346193
-0.4742995263
0.395369778
0.01402505854
53.43742606
-0.4612614882
1.873978856
0.01417822491
51.86518064
-0.4385685758
1.557946988
0.006066980344
42.72115912
-0.3832965213
9.101783513
0.0347342938
47.09426432
-0.3257345302
-4.29735769
-0.08395721305
-0.2962561343
2.57812988
49.112858
-4.606472253
47.91564728
0.001392265509
-2.523347341
-49.39050665
3.998795906
45.06746223
0.002890508518
4.228269776
-1.378794325
51.89503988
0.005311271521
-8.108633754
1.283796776
52.95612941
0.006728828488
-1.920800007
0.8636116399
54.65759005
0.007371204837
-2.07490892
0.3789093424
55.48059841
0.00740559976
-0.905641889
0.08940467987
55.87901232
0.006542606082
-0.3693945716
-0.0217073607
55.8918344
0.003355995568
0.0476385894
-0.05319640885
55.90676046
-0.002141579764
0.05594672824
-0.06301171942
55.9220939
-0.008773008115
0.05869436066
-0.06503443168
55.93664657
-0.01687524953
0.05975137189
-0.06468870171
55.95094914
-0.0263870705
0.0604859353
-0.06404830622
55.96529488
-0.03758054295
0.06110888709
-0.06332270715
55.98005809
-0.05069967492
0.06154718524
-0.06245677529
55.99591374
-0.06595044432
0.06185386715
-0.06170065163
56.01378407
-0.08357110871
0.06214895544
-0.06134942067
56.03431576
-0.1037557017
0.06237551096
-0.06107832372
56.05713004
-0.1264347273
0.06209499667
-0.05940872125
56.08056454
-0.1511625172
0.06057599287
-0.05427823941
56.10253419
-0.177258458
0.05748314198
-0.04497101454
56.12216477
-0.2041833365
0.05360247533
-0.03366363246
56.14058197
-0.2315451692
0.0502825874
-0.02406121519
56.15878243
-0.2580431363
0.04875081881
-0.01795840057
56.17652592
-0.2824391566
0.04909834014
-0.01357591864
56.19145062
-0.3029931129
0.05087604505
-0.009828887725
56.20205782
-0.317304528
0.05402551542
-0.007109380201
56.20555485
-0.3246076275
0.05885085728
-0.006587770569
56.20111731
-0.3258344632
0.06617410675
-0.008619353423
56.08129015
-0.3212515331
0.17730646
-0.01150191888
55.97478889
-0.3151181599
0.1588489136
-0.01335103955
55.51314362
-0.3057643739
0.506040045
-0.01389078651
55.2169302
-0.2997956029
0.3326334559
-0.01243456158
55.2008567
-0.2958929318
0.0410062104
-0.008769299189
55.20210776
-0.2931677647
0.008061615972
-0.003253210429
55.21657439
-0.2921475847
-0.02546397959
0.005174263341
55.26978944
-0.2926586943
-0.08804768305
0.01587554427
55.34464375
-0.2962833762
-0.1313207296
0.02552807296
55.41166385
-0.3068320503
-0.1345277347
0.02850880674
55.46205132
-0.3256260657
-0.1234656346
0.0301717271
55.50808956
-0.3494943588
-0.1225738762
0.03250689456
55.83786878
-0.375061303
-0.4065346894
0.03298197817
56.32639802
-0.4033765044
-0.56087654
0.03081613551
56.44775621
-0.4242668481
-0.1880871949
0.02845868318
56.18488258
-0.4360367819
0.2008719382
0.02599924664
55.3376206
-0.4377991566
0.7866834924
0.02407064789
53.44404278
-0.4257906175
1.833516619
0.02458482595
51.87245081
-0.4041147879
1.520453928
0.01668004688
42.73254975
-0.3513570573
9.061639689
0.04631791107
47.10913827
-0.2971863575
-4.332815675
-0.07232224123
-0.2696594461
2.543044061
49.14467612
-4.605178967
47.91596306
0.0006253087256
-2.523460317
-49.39044786
3.998712378
45.0680266
0.001385941427
4.227948833
-1.378507595
51.89032816
0.002549585642
-8.115515852
1.295976194
52.95014309
0.002973567072
-1.927057554
0.8709980855
54.65379417
0.002617059354
-2.080900266
0.3820035274
55.47858304
0.001815920199
-0.9094123387
0.09021338845
56.27318143
-0.0002139207171
-0.7663243674
-0.0215172317
56.52134995
-0.00309339154
-0.1886294672
-0.05308937168
56.53485834
-0.008100225513
0.05536234438
-0.06291176749
56.54785174
-0.0152393346
0.05853155636
-0.06505827903
56.56005876
-0.02420097305
0.05986161824
-0.06474252823
56.57173523
-0.03477536376
0.06086742087
-0.06415516836
56.58319465
-0.0472272476
0.06171080895
-0.06352307773
56.59486906
-0.06191952186
0.06226809859
-0.06272217745
56.6074504
-0.07917081548
0.06259322097
-0.06195370256
56.62190448
-0.09932491869
0.06287012558
-0.06156992009
56.63905576
-0.122634095
0.06304854646
-0.06132097133
56.65879871
-0.1490593637
0.06256051455
-0.05967837496
56.67973293
-0.1782436541
0.06061111368
-0.05446374791
56.70009736
-0.2096157125
0.05699126346
-0.04499800375
56.71966368
-0.2426035281
0.05247074264
-0.03361646433
56.73996288
-0.2763503044
0.04864852423
-0.02414224001
56.76237772
-0.3092295184
0.04668239
-0.01791062623
56.78624847
-0.3394734736
0.04633381593
-0.01317017201
56.80912195
-0.3638798979
0.04719278712
-0.00917958464
56.82893229
-0.3805885218
0.04985489357
-0.006381484173
56.84116285
-0.3860815734
0.05516752261
-0.005924502455
56.60369579
-0.3806406364
0.3003202457
-0.008047640353
56.17669109
-0.3670804469
0.4837880191
-0.01095537026
55.98375489
-0.3516045015
0.2419579984
-0.01253714533
55.51652067
-0.3323691395
0.5067752768
-0.01293867473
55.2191704
-0.3187725778
0.3275431137
-0.01121808404
55.21522124
-0.3071589413
0.02248616129
-0.007273898409
55.21528498
-0.2977766353
0.006040745027
-0.001497972276
55.24082711
-0.2866964632
-0.03774384985
0.006747159986
55.29593392
-0.2731708609
-0.08869043666
0.01409257675
55.36129379
-0.2602385911
-0.1215184779
0.02010938466
55.41766171
-0.2567228938
-0.132049265
0.0255681516
55.46236889
-0.265995104
-0.1368584835
0.03251421841
55.50526663
-0.2847463067
-0.146491967
0.03884035525
55.8342925
-0.3091533478
-0.4360036788
0.04106389285
56.32450319
-0.3388407266
-0.5942665199
0.03951406004
56.54128526
-0.3625534693
-0.3159191578
0.03741685122
56.29454135
-0.378284102
0.1541170325
0.0348671895
55.35338211
-0.3838380277
0.8545394532
0.03265129471
53.46556308
-0.37675438
1.806831245
0.03194604079
51.90171411
-0.3587280105
1.494944815
0.02351339192
42.76216525
-0.3119345292
9.047898054
0.05222426084
47.14262261
-0.2626831741
-4.346148611
-0.0688130102
-0.2350434499
2.535267625
49.18029631
-4.607557592
47.91530771
0.0002726122369
-2.523389176
-49.39029284
3.998727338
45.06662089
0.0006304317742
4.227924707
-1.378482189
51.88623617
0.001020263706
-8.115984801
1.297899096
52.94383462
0.0007717927287
-1.927418972
0.8720224738
54.6458715
-0.0004883443628
-2.081310131
0.3823788574
55.46905514
-0.001989477844
-0.9096265146
0.09024850535
56.26278519
-0.005297630357
-0.7672525691
-0.02139349691
56.74606863
-0.008591507101
-0.4245415938
-0.05324343341
56.97494914
-0.01393963452
-0.1599594146
-0.06308136931
56.987624
-0.02108927885
0.05819992221
-0.06502449374
56.99902846
-0.03047836613
0.05951142915
-0.06463811437
57.00960456
-0.04172982458
0.06036465572
-0.06398587868
57.01971345
-0.05511426241
0.06106715793
-0.06328857538
57.02981028
-0.07108165518
0.06152139544
-0.06245562618
57.04068306
-0.0900954528
0.06171694892
-0.06166461126
57.05336164
-0.112598515
0.0617976478
-0.06120214902
57.06872644
-0.1389255268
0.06174387749
-0.0608167787
57.08683318
-0.1691272976
0.06102370835
-0.05906203101
57.10658176
-0.2029913427
0.05876041316
-0.05376082562
57.12661097
-0.2400109727
0.05447884265
-0.0441123164
57.14719869
-0.2796798991
0.04900169712
-0.03251261247
57.1707116
-0.3210688597
0.04421445541
-0.02300843249
57.11664699
-0.3611856191
0.122629875
-0.01660890338
57.04849145
-0.3968567354
0.1367890698
-0.01125015989
57.04251922
-0.4254880612
0.07459204505
-0.007011694051
57.07132081
-0.444057097
0.03894549485
-0.00427867336
57.09183645
-0.4478840713
0.04518043176
-0.003893898254
56.62415768
-0.4366057622
0.5300010771
-0.006357769527
56.20079235
-0.4125556586
0.4780803644
-0.009240732753
56.00944949
-0.3862311151
0.2373379191
-0.01137018835
55.54474071
-0.3564350841
0.5009094378
-0.01213710442
55.24784016
-0.3331136249
0.3215155737
-0.01027654456
55.24114004
-0.3119243425
0.01721469719
-0.005751239378
55.24256278
-0.2936506994
-0.005946087487
0.0003942236811
55.25120681
-0.2723553835
-0.03038578703
0.007397119017
55.29646599
-0.2445797009
-0.09008674833
0.01623279682
55.35116281
-0.2138217062
-0.1230389878
0.02192248975
55.4011329
-0.193481688
-0.144034597
0.03081839037
55.44180267
-0.1892722724
-0.1568432223
0.03944565299
55.48408412
-0.2021266773
-0.1721110715
0.04720357383
55.81481223
-0.223847634
-0.4663767891
0.05033817079
56.31003389
-0.2529181279
-0.630223765
0.0490732952
56.44094789
-0.2774962024
-0.2636359746
0.04765891889
56.39017156
-0.2956381544
-0.07736808115
0.04549125571
55.34880474
-0.3020938509
0.9157532047
0.04386224608
53.46524509
-0.2969133237
1.758914892
0.04479851351
51.90020547
-0.2810294421
1.449354215
0.03798315484
42.77003839
-0.2413958509
8.990049905
0.06957479813
47.15754322
-0.201210016
-4.397651718
-0.05132720782
-0.1782408945
2.482306288
49.22100646
-4.602572339
47.91523424
-0.0001375530224
-2.523435275
-49.39013967
3.998751195
45.06664512
-0.000143681693
4.227801592
-1.378438111
51.8862522
-0.0004253659508
-8.116438564
1.298277338
52.94381371
-0.001158720659
-1.927907828
0.8722770366
54.6455531
-0.002774153807
-2.082010047
0.3825566621
55.46828582
-0.004684919447
-0.9104826279
0.09044558233
56.26116396
-0.00855115167
-0.7684709522
-0.02115339557
56.74356697
-0.01206905469
-0.4258986195
-0.05302655395
57.18627356
-0.01801695929
-0.3754241378
-0.06320483143
57.1973815
-0.02481633222
0.05759964773
-0.06498019958
57.20638885
-0.03411223224
0.05921208858
-0.0645852054
57.21411563
-0.04558759277
0.06012244742
-0.06399106221
57.2210132
-0.05945620668
0.06079016461
-0.06334536506
57.22749864
-0.07620778395
0.06117326026
-0.06253212419
57.23434227
-0.09642965198
0.06122425542
-0.06173323635
57.24262852
-0.1206900472
0.06104775157
-0.06124200995
57.25337473
-0.1494448707
0.06058174282
-0.06080815476
57.26694178
-0.18293166
0.05922165527
-0.0589838691
57.28268691
-0.2212083863
0.05600088507
-0.05352849071
57.30014044
-0.264195582
0.05040373411
-0.04367219016
57.23873545
-0.3110167393
0.1246357438
-0.03189348195
57.1659519
-0.3599787956
0.1337878745
-0.02209403941
57.03923992
-0.4085274644
0.1891754174
-0.01512135995
56.83724351
-0.4520923727
0.2662586024
-0.009026441673
56.78573108
-0.4865474149
0.1166210821
-0.004049346672
56.82884455
-0.5078453795
0.02181449074
-0.001139938147
56.86301806
-0.5096476585
0.02852652436
-0.0009364503414
56.64346293
-0.4913010281
0.2780714492
-0.003821633902
56.226186
-0.4561660062
0.4682627087
-0.007375777869
56.03655848
-0.4159751421
0.2294105765
-0.01004071995
55.57709719
-0.3764702393
0.4903616406
-0.0108671515
55.28572541
-0.34602211
0.3129208047
-0.008642859273
55.29329578
-0.3223452311
0.006670745089
-0.00382273488
55.32254213
-0.2962302156
-0.03057670987
0.003907364107
55.33725966
-0.2597232275
-0.03896828613
0.01161431066
55.37977199
-0.2050045803
-0.1000433475
0.01795300316
55.40134166
-0.1390865826
-0.1183605427
0.02205175738
55.42517468
-0.09933368853
-0.1476643367
0.02968115675
55.4480697
-0.0812843687
-0.1749410041
0.0440518171
55.4797254
-0.08965028114
-0.1961545948
0.05201711919
55.777227
-0.1112953499
-0.466428069
0.05636831887
56.04777251
-0.1414425453
-0.4386577439
0.05663250433
56.0939527
-0.1706132735
-0.2090303809
0.05596150612
56.14333151
-0.1965851958
-0.2021796121
0.05374161325
55.36510032
-0.2128714001
0.6393171531
0.04968602778
53.49533864
-0.2169206879
1.739481139
0.05028324853
51.93716465
-0.2079837074
1.444553498
0.04057162185
42.8047236
-0.1810135805
9.003109268
0.06894574459
47.19441507
-0.1454958279
-4.390889276
-0.05451729571
-0.1228022226
2.493774606
49.25287568
-4.607674312
47.91478409
-0.0003189416716
-2.523396519
-49.38997039
3.998764586
45.06581705
-0.0005073101505
4.227775029
-1.378444154
51.88458358
-0.00123158797
-8.116146659
1.298186644
52.94105698
-0.002215212119
-1.927603108
0.8721863713
54.6417263
-0.004166007698
-2.081807225
0.3825299665
55.4630973
-0.00624310925
-0.9102394847
0.09042690573
56.25458423
-0.01050183095
-0.7684312482
-0.02110472094
56.73542836
-0.01400526757
-0.4259047662
-0.0530028615
57.17627444
-0.02020911706
-0.3754186924
-0.06323492632
57.18568149
-0.02682698025
0.0575706919
-0.06496676554
57.19276089
-0.03588321386
0.05921051024
-0.06451856975
57.19821963
-0.04724892796
0.06009042122
-0.06388742655
57.20247867
-0.06118772635
0.06068339132
-0.06321048059
57.20590487
-0.078231511
0.06096397326
-0.06236599865
57.20920231
-0.09906529871
0.06085571462
-0.06151704389
57.21342374
-0.1244009915
0.06040428459
-0.06091429214
57.21967051
-0.1548757378
0.05948244828
-0.06029786326
57.22857479
-0.1909444385
0.05741148318
-0.05830248212
57.21437163
-0.2331383209
0.0788339053
-0.05270029699
57.14174254
-0.281557041
0.1324963351
-0.04250527963
56.93421414
-0.3349996723