/*--------------------------------*- C++ -*----------------------------------*\
| =========                 |                                                 |
| \\      /  F ield         | OpenFOAM: The Open Source CFD Toolbox           |
|  \\    /   O peration     | Version:  2.2.1                                 |
|   \\  /    A nd           | Web:      www.OpenFOAM.org                      |
|    \\/     M anipulation  |                                                 |
\*---------------------------------------------------------------------------*/
FoamFile
{
    version     2.0;
    format      ascii;
    class       volVectorField;
    location    "3";
    object      U;
}
// * * * * * * * * * * * * * * * * * * * * * * * * * * * * * * * * * * * * * //

dimensions      [0 1 -1 0 0 0 0];

internalField   nonuniform List<vector> 
86889
(
(15.03496348 0.006001530597 0.004880807441)
(15.05344605 0.004760683477 0.006236123463)
(15.05654771 0.001964691138 0.006439085309)
(15.0618641 0.001669225272 0.004615325182)
(15.06915017 0.0003745685404 0.00252065253)
(15.07649407 -0.001663156568 0.0005649000747)
(15.08204121 -0.003211151667 -0.0009766832708)
(15.08665438 -0.004268110591 -0.00213434672)
(15.09093557 -0.00499006799 -0.002933504281)
(15.09502673 -0.005442582611 -0.003482883603)
(15.09907268 -0.005781273911 -0.003980536712)
(15.10292801 -0.006122711154 -0.004460668147)
(15.10653041 -0.006469694817 -0.004842641261)
(15.10984155 -0.006743668265 -0.005032953154)
(15.11314249 -0.006868757122 -0.004933034997)
(15.11681311 -0.006763014626 -0.004448747947)
(15.1216153 -0.00642135977 -0.00366776704)
(15.12795254 -0.006232175368 -0.003122571186)
(15.13421653 -0.006614886824 -0.003208903465)
(15.13829635 -0.007434398134 -0.003624431643)
(15.14002074 -0.008363316595 -0.004022269941)
(15.1397694 -0.009478686147 -0.004211209172)
(15.13764477 -0.01019161555 -0.003673100607)
(15.1348024 -0.009878741877 -0.002033304982)
(15.13219957 -0.008781488155 0.0003641279631)
(15.13001164 -0.007651693386 0.002632614883)
(15.12803536 -0.006923334387 0.004609427251)
(15.12631122 -0.006618003584 0.006219855649)
(15.12490812 -0.0067302993 0.007429611662)
(15.12379788 -0.007318593485 0.008344032262)
(15.12293584 -0.008070903214 0.008775751374)
(15.12151014 -0.009189841809 0.009161475975)
(15.11973758 -0.01066525218 0.00921240559)
(15.11714199 -0.01246550057 0.009969154271)
(15.11957926 -0.01457913558 0.01116048756)
(15.12562344 -0.01589102144 0.01052970996)
(15.13937743 -0.02008917067 0.01167360586)
(15.15208129 -0.02303497889 0.01282318979)
(15.16202435 -0.02400461715 0.0137217749)
(15.17051792 -0.02462942762 0.01450244568)
(15.17791824 -0.02536055308 0.01606165546)
(15.18486892 -0.02599583887 0.01868107416)
(15.19085068 -0.02632465108 0.02142365644)
(15.19695709 -0.02645451131 0.02428465017)
(15.20064052 -0.02647820088 0.02584107161)
(15.20587787 -0.02604500322 0.02755468408)
(15.20445537 -0.02561144766 0.02874802291)
(15.21831451 -0.0261196308 0.02775594381)
(15.16362457 -0.02784863864 0.022601111)
(15.34734561 -0.07088010473 -0.0235611634)
(15.0177771 0.007423113617 0.005854321797)
(15.02839625 0.0108830872 0.005890425254)
(15.03534899 0.01374851504 0.005850492552)
(15.04238441 0.01790530584 0.005813501861)
(15.0489469 0.02112256602 0.005172651127)
(15.05475588 0.02286978094 0.004281700557)
(15.05961628 0.02362309039 0.003552215357)
(15.06371389 0.02381297105 0.003113929709)
(15.06747594 0.02365639787 0.002908359787)
(15.07117871 0.02322938187 0.002801077776)
(15.07482369 0.02258538912 0.002679151533)
(15.07823019 0.0218018722 0.002516607825)
(15.0813416 0.02091673791 0.00237558457)
(15.08432216 0.01995532851 0.002356248447)
(15.08737168 0.01901043039 0.00253236377)
(15.09077483 0.01815018254 0.002968368589)
(15.09496764 0.01725785545 0.003621747343)
(15.10021646 0.01600915406 0.003927064683)
(15.10608204 0.01389267474 0.00319406923)
(15.11140802 0.01059709275 0.001671355539)
(15.11511126 0.006445823785 9.486146622e-05)
(15.11715023 0.002019396955 -0.0009230342165)
(15.11830375 -0.002450252485 -0.0009846773734)
(15.11947846 -0.006714663952 0.0001233861475)
(15.12107699 -0.01064862621 0.002101179881)
(15.12249813 -0.0136384695 0.004007992245)
(15.12371873 -0.01604607419 0.005863187387)
(15.12454143 -0.01787068153 0.007410310291)
(15.12509934 -0.01946530003 0.00862888852)
(15.12525826 -0.020866132 0.009366334232)
(15.12510987 -0.02253998046 0.009796245891)
(15.12489052 -0.02480014429 0.00991388478)
(15.12549054 -0.02775658627 0.00996016842)
(15.12679235 -0.03164960926 0.009563548044)
(15.13222631 -0.03631435472 0.01087721157)
(15.13349354 -0.03970062739 0.007061947699)
(15.15500113 -0.04485759003 0.007461259289)
(15.16786962 -0.04926899321 0.009630880853)
(15.1761564 -0.05302259286 0.01115789556)
(15.18213277 -0.05670438691 0.01188538215)
(15.18771028 -0.0599228356 0.01303138358)
(15.19370755 -0.06218614647 0.01521120382)
(15.19892642 -0.06333161418 0.01735605452)
(15.20413137 -0.06371635729 0.01950365681)
(15.20747974 -0.0635066181 0.02086246592)
(15.21180726 -0.06229744378 0.02234814846)
(15.21104816 -0.06055556318 0.0233584326)
(15.22317544 -0.0591682453 0.02457413655)
(15.1877825 -0.06183610182 0.02385803774)
(15.28439218 -0.04914372343 -0.009247539584)
(15.01641869 0.003321652277 0.006041280625)
(15.02265544 0.004862482253 0.007287028035)
(15.02747579 0.005882745243 0.01127680942)
(15.03396741 0.006475340107 0.008498210124)
(15.04075766 0.006762706111 0.004449901084)
(15.04683198 0.00638466392 0.002514377551)
(15.05165534 0.005935152807 0.00270562783)
(15.05642022 0.00531178542 0.003170826399)
(15.0612123 0.00451837633 0.003259225105)
(15.06600815 0.003654079495 0.003142647211)
(15.07065946 0.002746265343 0.002998167262)
(15.0751936 0.001726087557 0.002877626687)
(15.07971159 0.0005325497162 0.002763273842)
(15.08426978 -0.0008364873713 0.00268344821)
(15.08901232 -0.002290063427 0.002700694404)
(15.09421834 -0.003796176975 0.002800967197)
(15.10026443 -0.005524047748 0.002806063192)
(15.10737117 -0.007900155108 0.002473003678)
(15.11524568 -0.01115498042 0.001670539354)
(15.12221949 -0.01445658733 0.00071821975)
(15.12726191 -0.01714430045 -4.586716616e-05)
(15.13067202 -0.01945688445 -0.0004124913513)
(15.13318758 -0.02182323453 -3.660367762e-05)
(15.13530189 -0.02426341763 0.001263204359)
(15.13698944 -0.02651852107 0.003231354628)
(15.13790328 -0.02833023822 0.00515921121)
(15.13803322 -0.02972452475 0.006759383178)
(15.13755375 -0.03105337136 0.008127193445)
(15.13664448 -0.03238848815 0.009111296968)
(15.13535958 -0.03407644531 0.009657681344)
(15.13382907 -0.03630413516 0.009944933962)
(15.13241918 -0.03934635669 0.009749545674)
(15.13208957 -0.04310036938 0.009229402957)
(15.13310941 -0.04768979696 0.007663417866)
(15.13791068 -0.05264139657 0.007563868197)
(15.13948183 -0.05899289949 0.002543827192)
(15.15892941 -0.06449466572 0.000945176134)
(15.17116966 -0.07017741107 0.001538959119)
(15.1795489 -0.07598434803 0.001936313236)
(15.18631727 -0.08138765473 0.002172427145)
(15.19325749 -0.08583727127 0.003300363138)
(15.20101744 -0.08928079128 0.005516591554)
(15.2072472 -0.09120898494 0.007491399236)
(15.21376616 -0.09236260386 0.00951564172)
(15.21754882 -0.09248414857 0.01070882515)
(15.22424354 -0.09179339878 0.01169758034)
(15.21774843 -0.08949114041 0.01250050957)
(15.24966169 -0.08838466828 0.01153310349)
(15.18824011 -0.09111067967 0.009846469788)
(15.27512678 -0.0908511973 -0.02254317355)
(15.01613646 0.002213107522 0.005755651941)
(15.02339059 0.004357936287 0.006235231589)
(15.02844802 0.007553330744 0.0102337564)
(15.03725491 0.01012258217 0.007669204373)
(15.04389281 0.0122122646 0.00641208096)
(15.04942091 0.0131602912 0.005154402411)
(15.05486505 0.0134824286 0.004521290886)
(15.05921812 0.01342845401 0.005419021296)
(15.0635032 0.01294637626 0.006449436819)
(15.06783153 0.0121102585 0.006927023493)
(15.0720276 0.01103673554 0.007097348643)
(15.07598939 0.009783454924 0.007202916484)
(15.07988328 0.008313668045 0.007296037567)
(15.08382585 0.006642037113 0.00729758989)
(15.08800228 0.004762417127 0.007220826993)
(15.0926381 0.00258136971 0.007111012818)
(15.09800874 -3.316929993e-05 0.006955960866)
(15.10420868 -0.003192084532 0.006557165163)
(15.11078743 -0.006800053761 0.005735010774)
(15.1166207 -0.0105614919 0.004548991798)
(15.12128573 -0.01470952758 0.003283509468)
(15.12486275 -0.01940658076 0.002404191587)
(15.12788872 -0.02447235966 0.002385163378)
(15.13083554 -0.02938139474 0.003383847606)
(15.13371297 -0.03381748742 0.004929890486)
(15.136055 -0.03737011367 0.006357102754)
(15.13785643 -0.04034728627 0.007666340346)
(15.13894668 -0.04274977679 0.008779583568)
(15.13922484 -0.04478762807 0.009626975844)
(15.13860141 -0.0468840393 0.0101909306)
(15.137099 -0.04929333653 0.01029466458)
(15.13529304 -0.05236688071 0.009711660157)
(15.13420673 -0.056269508 0.008223073601)
(15.13472008 -0.06124583395 0.005171509772)
(15.13751232 -0.06702984368 0.001317311419)
(15.1419628 -0.07467220926 -0.003076524014)
(15.15123608 -0.08121722683 -0.006297297793)
(15.16069095 -0.08834701497 -0.008705648568)
(15.16908784 -0.09611501357 -0.01099752452)
(15.17776626 -0.1034574658 -0.01266768346)
(15.18672403 -0.1090186043 -0.0128314167)
(15.19686998 -0.1133949114 -0.01173238584)
(15.20483853 -0.1160407831 -0.01055251758)
(15.21346554 -0.1179553996 -0.009079342565)
(15.21847465 -0.1187054163 -0.008167325348)
(15.22745096 -0.1185748899 -0.006290113609)
(15.22467286 -0.1179875206 -0.005408593733)
(15.25514759 -0.1156014044 -0.005715750905)
(15.19448353 -0.1143695978 -0.003763706816)
(15.28313881 -0.1104827111 -0.0347085313)
(15.01618661 0.001410390673 0.006016935105)
(15.02229189 0.002656993861 0.006206568802)
(15.02623533 0.004039620365 0.01044501349)
(15.03451084 0.00480391581 0.00779113213)
(15.03995948 0.005443929589 0.005765759485)
(15.04408874 0.005480663062 0.004685889379)
(15.04845235 0.004541772036 0.003512769651)
(15.05282749 0.003349177555 0.004060586545)
(15.05721987 0.002037199185 0.005015317165)
(15.06179076 0.0005034720009 0.005386703617)
(15.06643779 -0.00130232884 0.005413955341)
(15.0710519 -0.00338228841 0.005418349399)
(15.07566402 -0.005741462633 0.00536033432)
(15.08035643 -0.008334205413 0.005257613724)
(15.0852378 -0.01115126936 0.005119455372)
(15.09053918 -0.01423032985 0.004979154691)
(15.09655827 -0.01767328277 0.00477163606)
(15.10339936 -0.02160591432 0.004328077956)
(15.11072345 -0.02596837303 0.003555800106)
(15.11747869 -0.03027062206 0.002588139038)
(15.12313056 -0.03436353144 0.001655926666)
(15.12773669 -0.03839398667 0.00108513188)
(15.13176316 -0.04246152961 0.001268359569)
(15.13562012 -0.04648047502 0.002439260058)
(15.13898679 -0.04999927146 0.004110074805)
(15.14153042 -0.05283342346 0.005753976843)
(15.14306031 -0.05492489817 0.007249471542)
(15.14356386 -0.05655580547 0.008598139275)
(15.14301104 -0.05775732974 0.009544102345)
(15.1413609 -0.05914177862 0.01020558172)
(15.13875113 -0.06094006213 0.01017319045)
(15.13577498 -0.0634118041 0.008971626726)
(15.13351734 -0.06667045405 0.006276195672)
(15.13290648 -0.07084178409 0.001784134867)
(15.13451227 -0.0760321463 -0.00429534504)
(15.13834024 -0.08217179744 -0.01021178526)
(15.14446874 -0.08825916848 -0.01512163657)
(15.15146289 -0.09476907067 -0.01961201886)
(15.15924081 -0.1017795134 -0.02390731635)
(15.16882191 -0.1085627055 -0.02696682138)
(15.17975343 -0.1142635206 -0.02799301658)
(15.19193778 -0.1188558293 -0.02759011797)
(15.20130164 -0.1216494022 -0.02687025085)
(15.21152506 -0.1237015061 -0.02570534195)
(15.21738161 -0.1245095535 -0.02461096178)
(15.2281782 -0.1244427743 -0.02291405052)
(15.22835721 -0.1236336557 -0.0212417403)
(15.25677039 -0.1197430625 -0.021370258)
(15.19750535 -0.1177482212 -0.01817001666)
(15.28780256 -0.1135538281 -0.04865564766)
(15.01626924 0.001067126074 0.00598890749)
(15.02258369 0.002088582477 0.006004687754)
(15.02696057 0.003650780961 0.00995367298)
(15.03590397 0.004725315293 0.007208856441)
(15.04212866 0.005931952205 0.004860720833)
(15.04592393 0.006809887256 0.003485846525)
(15.04995724 0.00707906743 0.002860493538)
(15.05423349 0.006643715741 0.004004899824)
(15.0585228 0.005829874401 0.005355437973)
(15.06256111 0.004829540274 0.005907872624)
(15.06641744 0.003589024187 0.006046963305)
(15.07015704 0.001961280229 0.006095764572)
(15.0738775 -0.0001270912975 0.006121129566)
(15.0777134 -0.00269998808 0.006064835318)
(15.08178105 -0.005759196821 0.005938160384)
(15.08626104 -0.009345753952 0.005808480797)
(15.0913942 -0.01352784914 0.00565647649)
(15.09726487 -0.01828588961 0.00530704057)
(15.10356811 -0.02347463777 0.00456586071)
(15.10965396 -0.02897448627 0.003445821012)
(15.11499186 -0.03482798569 0.002265895722)
(15.11959655 -0.04101156947 0.001547922121)
(15.12412347 -0.04741261521 0.00178983465)
(15.12855258 -0.05324007726 0.002962492084)
(15.13329375 -0.05882411117 0.004618470701)
(15.13695361 -0.06285678968 0.006030912792)
(15.14027908 -0.06619336878 0.007573640528)
(15.14196829 -0.06802900518 0.008726271278)
(15.14217193 -0.06946544588 0.009880152632)
(15.14115183 -0.0700982614 0.0103099833)
(15.13850493 -0.07110321416 0.009805632424)
(15.13529964 -0.07243939644 0.008112977188)
(15.13205497 -0.07440399309 0.004105225066)
(15.13043833 -0.07712681507 -0.002331967626)
(15.13104733 -0.08094494901 -0.01019316459)
(15.13420284 -0.08600263303 -0.01781211127)
(15.1394396 -0.0919195047 -0.024723767)
(15.14570665 -0.09853818822 -0.03157516082)
(15.15321477 -0.1057094806 -0.03810015893)
(15.1633268 -0.1129449425 -0.04290059563)
(15.17503666 -0.1195613466 -0.04467785586)
(15.18870377 -0.1255137557 -0.04463004975)
(15.20065643 -0.1295426695 -0.04433517774)
(15.21071136 -0.1322249447 -0.04366755792)
(15.2197823 -0.134150175 -0.04290186437)
(15.23034215 -0.1347357201 -0.03990263034)
(15.23254608 -0.1337911101 -0.03817275298)
(15.26347611 -0.129700526 -0.03743838376)
(15.2063469 -0.1278266982 -0.03123727702)
(15.29901025 -0.1229655986 -0.06118922802)
(15.01623702 0.00064213801 0.006041745934)
(15.0221503 0.001217364001 0.006002484188)
(15.02564173 0.001889008918 0.01004214277)
(15.0344594 0.002175687678 0.00715805009)
(15.03938261 0.00221506675 0.004583491899)
(15.04320946 0.002077125418 0.002325793551)
(15.0455323 0.001711490923 0.001286905076)
(15.04900429 0.0005094868741 0.002571869892)
(15.05293762 -0.001321411393 0.004296656796)
(15.05715759 -0.003447215264 0.005061243308)
(15.06132832 -0.005799648156 0.005239349667)
(15.06523623 -0.008396299199 0.005303898783)
(15.06905446 -0.01134284662 0.005315647058)
(15.07293904 -0.01470113426 0.005237077726)
(15.07703453 -0.01852225995 0.005097180947)
(15.08154498 -0.02286584536 0.004947936088)
(15.08671742 -0.02779209482 0.004762950477)
(15.09265018 -0.03329898231 0.004400603368)
(15.09909508 -0.03927951154 0.003703652811)
(15.10548541 -0.04554139291 0.002674055778)
(15.11126753 -0.05191067785 0.001579143206)
(15.11656118 -0.058408069 0.0009144089039)
(15.12184416 -0.06479694006 0.001187744068)
(15.12742501 -0.07078810563 0.002432572222)
(15.13301876 -0.07595678146 0.004068217854)
(15.13796998 -0.07976795065 0.005663646913)
(15.14185541 -0.08200712439 0.00719262803)
(15.14433823 -0.08267860488 0.008733170734)
(15.14475587 -0.08240115966 0.009554750072)
(15.14324055 -0.08174027242 0.01014240498)
(15.13941359 -0.08064268544 0.009239429914)
(15.13603927 -0.08025810383 0.006895474108)
(15.13193166 -0.08026167856 0.001495120467)
(15.12932875 -0.08069569485 -0.007262295378)
(15.12848462 -0.08146406501 -0.01731050736)
(15.129893 -0.08225868574 -0.02733642365)
(15.13334868 -0.08339073741 -0.03645956183)
(15.13829007 -0.0859937332 -0.04517156305)
(15.14516203 -0.0906460501 -0.05332290145)
(15.15548474 -0.09658334195 -0.05934356463)
(15.16760335 -0.1026960585 -0.06148139149)
(15.18309167 -0.1089277062 -0.06150566176)
(15.19599906 -0.1131760291 -0.06125037019)
(15.20784081 -0.1160879756 -0.06072298556)
(15.21913398 -0.1180526245 -0.06000860766)
(15.230172 -0.1178657952 -0.05622342988)
(15.23361672 -0.1165900668 -0.05434076795)
(15.26552342 -0.1116444707 -0.05349122894)
(15.21084084 -0.1084095438 -0.04534940439)
(15.30660895 -0.1026423041 -0.07500823539)
(15.01630044 0.0004464071369 0.006026206355)
(15.02220857 0.0008833148572 0.0059483558)
(15.02618035 0.001484004033 0.009867991552)
(15.03463532 0.001844879974 0.007038362873)
(15.04043767 0.002115460635 0.004160546523)
(15.04377455 0.002271585455 0.001828550317)
(15.04692468 0.002248186175 0.0004181517865)
(15.04908178 0.001961425897 0.00153868313)
(15.05266591 0.001106485418 0.003558945075)
(15.05635143 -0.0003212779139 0.004704759445)
(15.05983532 -0.002203495821 0.005079098437)
(15.06307127 -0.004541842067 0.005234687325)
(15.06614599 -0.007395536133 0.005314211818)
(15.0692156 -0.01084453139 0.005289436578)
(15.0724361 -0.01496070861 0.005179170613)
(15.07601693 -0.01982592632 0.005051426419)
(15.08022246 -0.02550920595 0.004900340687)
(15.08520712 -0.03200876367 0.004564447151)
(15.09079172 -0.03923693629 0.003839096728)
(15.0964738 -0.04707581644 0.002694540973)
(15.1018626 -0.05543649144 0.001449880029)
(15.10717345 -0.06412184076 0.00073060336)
(15.11301139 -0.07270929804 0.001035348632)
(15.11972858 -0.08083590546 0.002250477214)
(15.12693036 -0.08781176015 0.003789565691)
(15.13389737 -0.09282445722 0.005327015249)
(15.13996249 -0.09545393575 0.006858662819)
(15.14443748 -0.09578351255 0.008178973378)
(15.146565 -0.09410262094 0.009314464994)
(15.1453871 -0.09192111437 0.009724722553)
(15.14142552 -0.0881713166 0.008576602044)
(15.13766895 -0.08563214007 0.005664058704)
(15.1329361 -0.08312673417 -0.00138213489)
(15.13052188 -0.08114461072 -0.0119733178)
(15.13075266 -0.08004703535 -0.02367252006)
(15.13344807 -0.0795136352 -0.0356658642)
(15.1366899 -0.07968702384 -0.04747014044)
(15.13912277 -0.08153961598 -0.05811019457)
(15.14310001 -0.08555774722 -0.06773092567)
(15.15188451 -0.09120955284 -0.07448790742)
(15.16366313 -0.0974542719 -0.07658656087)
(15.17968165 -0.1043779574 -0.07627799932)
(15.19367924 -0.1095909223 -0.07552615933)
(15.2069869 -0.1133910518 -0.07458003597)
(15.22024614 -0.1159926933 -0.073422781)
(15.2341979 -0.1174332387 -0.06830196362)
(15.23922561 -0.1169994306 -0.06573317177)
(15.27413558 -0.1136177272 -0.0637052879)
(15.22090823 -0.1115375703 -0.05309035234)
(15.31796122 -0.1061763438 -0.08186402069)
(15.01631057 0.0002026300334 0.006046297686)
(15.0219138 0.0003964227151 0.005954510987)
(15.02568579 0.0005345305088 0.009924755423)
(15.03347527 0.0004621290707 0.007110680521)
(15.03899027 7.381187204e-05 0.004057974052)
(15.041622 -0.0004336451829 0.001677071451)
(15.04463299 -0.001470744967 -6.755118802e-05)
(15.04620443 -0.002411512813 0.0009617027576)
(15.04906132 -0.003890915457 0.002954484241)
(15.05248407 -0.005934946877 0.004234231605)
(15.05581467 -0.008495218167 0.004785549082)
(15.05885915 -0.01144927619 0.004982065225)
(15.06163533 -0.01487192022 0.005043806941)
(15.064314 -0.01887843941 0.005007003317)
(15.06709703 -0.02357941911 0.004889730445)
(15.07021957 -0.02908562456 0.004745011666)
(15.07394529 -0.03548184838 0.004571143177)
(15.07843728 -0.04278139512 0.004219270017)
(15.08357339 -0.05092500281 0.003467035457)
(15.08893532 -0.05979580065 0.002244208574)
(15.09426549 -0.06927250858 0.0008591771109)
(15.09982591 -0.07916122449 1.490103889e-06)
(15.10666711 -0.08898271184 0.0001829588914)
(15.1147796 -0.098139946 0.001200819047)
(15.12329155 -0.10572806 0.002542895765)
(15.13306387 -0.1111554365 0.004121331853)
(15.14051424 -0.1128874022 0.005551811435)
(15.14810888 -0.1116129468 0.007088133817)
(15.15144004 -0.1078464416 0.008371084645)
(15.1504732 -0.1028727303 0.009036191839)
(15.1470475 -0.0967937552 0.007943828574)
(15.14272234 -0.09225234384 0.00447098604)
(15.13720519 -0.0873198263 -0.004119289708)
(15.13306731 -0.08158090942 -0.01730188264)
(15.13080001 -0.07438394323 -0.0331383962)
(15.13091741 -0.06574452246 -0.05061403128)
(15.13192666 -0.05732181753 -0.06626479015)
(15.13302416 -0.05310837925 -0.0802908679)
(15.13594829 -0.05405533929 -0.09056995773)
(15.14413146 -0.05838546738 -0.09776332223)
(15.15604963 -0.06459913566 -0.09968791682)
(15.17209618 -0.07218782563 -0.09891073327)
(15.18772848 -0.0783762851 -0.09816643949)
(15.20132931 -0.08315547339 -0.09692274951)
(15.21640082 -0.08609713839 -0.09573337509)
(15.23179627 -0.08724055203 -0.0905716647)
(15.23788176 -0.08625725389 -0.08823774983)
(15.27298176 -0.08145370033 -0.08615848569)
(15.22479722 -0.07826380178 -0.07338740557)
(15.32757773 -0.07229081602 -0.1017238306)
(15.01632083 9.685122341e-05 0.006033257289)
(15.02195766 0.000218267364 0.005935228368)
(15.02577015 0.0003383912076 0.009878105281)
(15.03358457 0.0003455029112 0.007040509807)
(15.03906836 0.0001920524126 0.003935245881)
(15.04161483 -7.031783382e-05 0.001473339309)
(15.04444548 -0.0007320995905 -0.0004205007879)
(15.04583132 -0.00139890751 0.0004978608592)
(15.04810657 -0.0025903673 0.002506075791)
(15.05089545 -0.004106375652 0.003824860123)
(15.05364949 -0.00628329406 0.004570287929)
(15.05607614 -0.009007545064 0.004875176913)
(15.05810453 -0.01233938091 0.004977562545)
(15.05991159 -0.01640427866 0.004965578987)
(15.0617199 -0.02134505627 0.0048672735)
(15.0637656 -0.02730167515 0.00472699786)
(15.06632389 -0.03438303531 0.004534329144)
(15.06959778 -0.04263821284 0.004130134186)
(15.07358398 -0.05206896038 0.003269484884)
(15.07790247 -0.06264078817 0.001862074832)
(15.08279753 -0.07425794661 0.000234744198)
(15.08838071 -0.08669041796 -0.0008506530401)
(15.09580532 -0.09925464881 -0.0008796836133)
(15.10560929 -0.1109794769 -0.0001674259196)
(15.11649338 -0.1207689338 0.0009211442003)
(15.12873901 -0.1273561718 0.002234607583)
(15.14067579 -0.1291948686 0.003732521307)
(15.15045088 -0.1262900842 0.005380524838)
(15.15655763 -0.1190772074 0.006993559514)
(15.15631537 -0.1099494097 0.007931476217)
(15.1529044 -0.09982697405 0.007111948115)
(15.14814292 -0.09215451377 0.003393064509)
(15.14433817 -0.08677379199 -0.004634613908)
(15.14412141 -0.08294072902 -0.01642931574)
(15.14721095 -0.07857429651 -0.03024997584)
(15.15081631 -0.07151632961 -0.04539792006)
(15.14964387 -0.06161241572 -0.06184671134)
(15.14293947 -0.05228902876 -0.0791184496)
(15.13827023 -0.0464601765 -0.09721104842)
(15.14188991 -0.04700329132 -0.1050186948)
(15.15171338 -0.0512039919 -0.10779832)
(15.16684015 -0.05772628117 -0.1080326271)
(15.18276851 -0.06412852017 -0.1078172199)
(15.19869536 -0.07012852623 -0.1062011137)
(15.21564048 -0.07418385861 -0.1036696458)
(15.23721534 -0.07696659883 -0.09878792012)
(15.2453055 -0.07747335615 -0.09404391042)
(15.28350712 -0.07492968353 -0.09005953201)
(15.23595779 -0.07240394044 -0.07508019011)
(15.33853452 -0.06670084697 -0.102483283)
(15.01631834 -5.557565051e-05 0.006042037138)
(15.02179483 -7.34212588e-05 0.005936789695)
(15.02551464 -0.0002711991255 0.009907069003)
(15.03296314 -0.0005224045039 0.007087266875)
(15.03828701 -0.001080147865 0.00391377878)
(15.0404226 -0.001646660505 0.001478872696)
(15.04301096 -0.002813216902 -0.000501149553)
(15.04397378 -0.003745967842 0.0003737279197)
(15.04587093 -0.005381376049 0.002358341465)
(15.04823547 -0.007135659747 0.003674886351)
(15.05052327 -0.009531818349 0.004451016786)
(15.05244491 -0.01249165488 0.004773171928)
(15.05388831 -0.01606998304 0.004872266566)
(15.05500558 -0.02039406831 0.004849254613)
(15.05600802 -0.02562979163 0.004732163553)
(15.05711795 -0.03194858649 0.004549770918)
(15.05861131 -0.03950400885 0.004279002428)
(15.06070314 -0.0483974504 0.003759579663)
(15.06351597 -0.05872460639 0.002730682867)
(15.06686643 -0.07059493179 0.001065452874)
(15.07107339 -0.08392056208 -0.0008895041339)
(15.0764852 -0.09838259428 -0.002351367252)
(15.08391119 -0.1133116477 -0.002818264299)
(15.09541708 -0.1274335447 -0.002733031835)
(15.10952682 -0.1391608229 -0.002251838757)
(15.12563422 -0.1467708009 -0.001324550503)
(15.14259315 -0.148827425 0.0001392867179)
(15.15752351 -0.144495046 0.002209077433)
(15.1672851 -0.1354349779 0.00458186191)
(15.16869238 -0.1237198023 0.006293489604)
(15.16485618 -0.1117611709 0.006244262849)
(15.15675055 -0.100315264 0.003125774983)
(15.1475032 -0.08878304053 -0.004678358817)
(15.1423392 -0.07523258249 -0.01714173232)
(15.14289386 -0.05782670582 -0.03305955011)
(15.14805739 -0.03453299673 -0.04906418555)
(15.1510006 -0.009420385619 -0.07018062467)
(15.14738623 0.001111695893 -0.08721069495)
(15.14070427 0.003996299721 -0.1082768388)
(15.14031911 0.0008148505624 -0.1192831108)
(15.14709118 -0.005786682145 -0.1240755923)
(15.1600167 -0.0149227831 -0.126003461)
(15.17489288 -0.02403731694 -0.126648749)
(15.19221216 -0.03178295633 -0.1258220634)
(15.20788945 -0.03651907357 -0.1243743647)
(15.23084575 -0.03908994097 -0.1212544827)
(15.23972242 -0.03901031514 -0.1171670824)
(15.27920787 -0.03731698204 -0.1133236224)
(15.23878951 -0.03231244753 -0.09792768145)
(15.34851433 -0.02617417425 -0.1253323738)
(15.01633755 -7.148391827e-05 0.006037590579)
(15.02176713 -9.233057897e-05 0.005927187591)
(15.02552465 -0.0002401663575 0.009891646168)
(15.03277863 -0.000415960524 0.007084150285)
(15.03811777 -0.0008274613624 0.003834819438)
(15.03996915 -0.001237622424 0.001425311137)
(15.04247941 -0.002206066609 -0.0006345212064)
(15.04304709 -0.002931378844 0.0002379177636)
(15.04462965 -0.004351410623 0.002239253859)
(15.04650581 -0.005836319443 0.003523091574)
(15.04822747 -0.007959832583 0.00432156155)
(15.04948768 -0.01068076175 0.004675957015)
(15.05014699 -0.01407774566 0.004793200789)
(15.05033186 -0.01829804869 0.004772420607)
(15.05023585 -0.02353124328 0.00464266789)
(15.05005497 -0.02998398019 0.004421877475)
(15.05009192 -0.03785112866 0.004061836743)
(15.0504552 -0.04731836731 0.003390230154)
(15.05175074 -0.05866858026 0.002110718423)
(15.05355246 -0.07208441871 0.0001033508628)
(15.05607772 -0.08747700923 -0.002299660078)
(15.06071586 -0.1045037606 -0.004349248649)
(15.06855251 -0.1225949744 -0.005627852816)
(15.08128547 -0.1403074045 -0.006558310096)
(15.09967414 -0.1550649282 -0.007204322995)
(15.12106006 -0.1639705751 -0.006998573674)
(15.14319693 -0.1642585151 -0.005650176943)
(15.16314451 -0.1553178107 -0.003000845844)
(15.1761954 -0.137867936 0.0007884055852)
(15.17909595 -0.1191907106 0.003579461604)
(15.17574524 -0.1031254537 0.004263819684)
(15.1702249 -0.09152744543 0.001259343916)
(15.1717919 -0.08622679754 -0.004915137936)
(15.17828989 -0.08360855579 -0.01222557876)
(15.19059784 -0.07891325372 -0.02083557829)
(15.19635004 -0.05922651654 -0.02301203466)
(15.18030488 -0.02685026729 -0.03606438716)
(15.15329308 0.003777514345 -0.05694336159)
(15.13354239 0.02426991415 -0.08452301076)
(15.12948221 0.02733875105 -0.09900898204)
(15.13459621 0.02357131602 -0.1048451537)
(15.14667677 0.01544608832 -0.1079059597)
(15.16352195 0.006144455079 -0.1090347867)
(15.18445771 -0.002538540974 -0.1082784293)
(15.20420695 -0.008970971083 -0.1056762285)
(15.23266015 -0.01310105713 -0.1015612885)
(15.24412989 -0.01454836592 -0.09464646656)
(15.28641658 -0.01298728732 -0.08811400066)
(15.24654159 -0.007749249264 -0.07349915276)
(15.35154677 -0.001102674272 -0.1017939211)
(15.01633913 -0.0001521149131 0.00604274414)
(15.02167209 -0.000242649902 0.005926348365)
(15.02540799 -0.0005197224574 0.009904866051)
(15.0323971 -0.0007862056272 0.007120352506)
(15.0376825 -0.001329378507 0.003805666974)
(15.0391848 -0.001803023501 0.001448541554)
(15.04156599 -0.002924467601 -0.000679600851)
(15.04173048 -0.003627606322 0.0001873437341)
(15.04300747 -0.005121635127 0.002223796293)
(15.04447807 -0.006590377186 0.003480853294)
(15.04570787 -0.008662130036 0.004276504401)
(15.04638991 -0.01128941551 0.004631905422)
(15.04635436 -0.01455825766 0.004742436312)
(15.04569152 -0.0186251141 0.004700294059)
(15.04455084 -0.02368723948 0.004533151338)
(15.04311083 -0.02998606076 0.004243876807)
(15.04157512 -0.03773845842 0.003753179966)
(15.04022176 -0.04726942123 0.002858487351)
(15.03969031 -0.05905968369 0.001275524)
(15.03907208 -0.07329681504 -0.001163261617)
(15.03966007 -0.09002844158 -0.004263457499)
(15.0425434 -0.1091769014 -0.007341994497)
(15.05101981 -0.1302663679 -0.01012776655)
(15.0649403 -0.151957473 -0.01283024463)
(15.08743668 -0.1714899536 -0.01532804913)
(15.11844597 -0.184987691 -0.01664952136)
(15.15283178 -0.189045786 -0.01539830734)
(15.18410428 -0.1806627556 -0.01055348807)
(15.20233209 -0.1613524593 -0.0033855223)
(15.20293522 -0.1401151869 0.001668187813)
(15.19040476 -0.118700676 0.003556382035)
(15.17083958 -0.09835401776 0.001116617604)
(15.15843901 -0.08329721793 -0.005292004135)
(15.15074352 -0.06309390802 -0.02251745951)
(15.17471774 -0.05779623306 -0.0287959067)
(15.1929493 -0.0007129811928 -0.03508724958)
(15.2088515 0.03950738559 -0.03676618777)
(15.18583954 0.04560362687 -0.04966717222)
(15.15461683 0.05200884636 -0.073294982)
(15.13346923 0.05201886117 -0.1002398463)
(15.13046374 0.04482344578 -0.1133675891)
(15.13792036 0.03292738949 -0.1224831541)
(15.15255171 0.02157573792 -0.1281229555)
(15.17258566 0.01241010585 -0.1312714965)
(15.19222113 0.005597525476 -0.1324205736)
(15.22103933 0.0009671443536 -0.131302269)
(15.23462097 -0.000821442095 -0.1265355761)
(15.28057026 -0.0004265452599 -0.1208516436)
(15.2484066 0.006748875153 -0.1029527487)
(15.36147204 0.01239100392 -0.1313281241)
(15.01634605 -0.0001353632911 0.00604042329)
(15.02165078 -0.0002093193928 0.005922093545)
(15.02533755 -0.0004112358266 0.00990499461)
(15.03228658 -0.0006187014353 0.007104129053)
(15.03739535 -0.001023991765 0.00379212199)
(15.03881597 -0.001395716307 0.001397708405)
(15.04093019 -0.002286250524 -0.0007288277751)
(15.04086817 -0.002821651569 0.0001353405492)
(15.04186121 -0.004073597061 0.002209579294)
(15.04292716 -0.005266574748 0.003429184381)
(15.04368073 -0.007006936406 0.004220320231)
(15.04378336 -0.009256105849 0.004576943747)
(15.04303022 -0.01210810411 0.004682889125)
(15.04147997 -0.01572384601 0.004627415111)
(15.03921633 -0.02030269787 0.00442838773)
(15.03644017 -0.02610394967 0.004061954396)