/*--------------------------------*- C++ -*----------------------------------*\
| =========                 |                                                 |
| \\      /  F ield         | OpenFOAM: The Open Source CFD Toolbox           |
|  \\    /   O peration     | Version:  2.2.1                                 |
|   \\  /    A nd           | Web:      www.OpenFOAM.org                      |
|    \\/     M anipulation  |                                                 |
\*---------------------------------------------------------------------------*/
FoamFile
{
    version     2.0;
    format      ascii;
    class       volScalarField;
    location    "4";
    object      epsilon;
}
// * * * * * * * * * * * * * * * * * * * * * * * * * * * * * * * * * * * * * //

dimensions      [0 2 -3 0 0 0 0];

internalField   nonuniform List<scalar> 
86889
(
0.1173506066
0.04959754145
0.02658839974
0.01742934283
0.01356863458
0.01219131741
0.01217736732
0.01297847513
0.01427690387
0.01586841467
0.01760424226
0.01937584258
0.02111446615
0.02278383623
0.02436445047
0.02583610997
0.02717572351
0.02836860059
0.02944116976
0.03045928177
0.03150344531
0.03263790075
0.03385851306
0.03501496898
0.03589804766
0.03647718407
0.03694924993
0.03763641753
0.03864235216
0.03998602848
0.0417667209
0.04466299218
0.04885341682
0.05320961414
0.05427515668
0.05489369245
0.05532876581
0.05559558339
0.05578979594
0.05594180498
0.05645934019
0.05706799793
0.05763027231
0.058109638
0.058510588
0.05880772097
0.05913375469
0.05898423012
0.06156459714
0.1683610664
0.1106576672
0.05025762192
0.02634590544
0.01615430847
0.01146888265
0.009332953206
0.00854570262
0.008555941718
0.009072881845
0.00991621179
0.01095846511
0.01210764085
0.01330232797
0.01450214734
0.01567603608
0.01679556579
0.01783842589
0.01879491791
0.0196799695
0.0205238566
0.02136618863
0.02223076265
0.02310292119
0.02388278779
0.02444919726
0.02480309742
0.02507636712
0.02544562702
0.02599891755
0.02678956023
0.02778000477
0.02894538411
0.03025421785
0.03155813564
0.03261002624
0.03364235419
0.0342319414
0.03466064769
0.0350249708
0.03535404082
0.03592215029
0.0366563049
0.03736690503
0.03802387088
0.03862241619
0.03913997796
0.03966409277
0.0396696488
0.0411487051
0.1214115983
0.109605832
0.05157716061
0.02582588862
0.01520390828
0.01009821523
0.007672929036
0.006779518475
0.006709767724
0.007103633131
0.007773562494
0.008608702369
0.009535568912
0.01050229259
0.01147244292
0.01242171935
0.01333466477
0.01420159846
0.01501775648
0.01578578907
0.01652180403
0.0172545943
0.01800501272
0.01876818389
0.01949636388
0.02013086758
0.02067027298
0.02120144267
0.02183471529
0.02264147294
0.02363958199
0.02480574096
0.02608403085
0.02741770938
0.0286611441
0.02967987426
0.03065094446
0.03115685874
0.03154281599
0.03186472686
0.03214278185
0.03247711214
0.03297903774
0.03348490158
0.03396587445
0.03441933383
0.03481397623
0.03532299263
0.03551653299
0.03560902381
0.1144170788
0.1094092073
0.05122825091
0.02488416368
0.01446338205
0.009477936211
0.006946278326
0.00588616434
0.005693956713
0.005979211984
0.006541698595
0.007273199839
0.008106917814
0.008995662749
0.009902912217
0.01080330491
0.01167996955
0.01252341614
0.01332939416
0.01409844011
0.0148370875
0.01556408934
0.01630168458
0.01704984497
0.01776969321
0.01840736793
0.01895957127
0.01949726761
0.02011835006
0.0208832592
0.02180321865
0.02284872804
0.02396958197
0.02511132323
0.02610869242
0.02702662873
0.02785893161
0.02845430912
0.02895211988
0.02939008826
0.02976024061
0.03005999393
0.03039719753
0.03072147415
0.03102349552
0.03130887368
0.03154620362
0.03194799467
0.0322546267
0.0329644128
0.1130611448
0.10940454
0.05114040134
0.02478990621
0.01429765879
0.009258502968
0.006725953631
0.005556883157
0.005258272951
0.005433495181
0.005882117112
0.006498643032
0.007222329363
0.008008615582
0.008824997919
0.009647160757
0.01045850135
0.01124851683
0.0120102886
0.0127419357
0.01345128067
0.01415718487
0.01487996129
0.01561924557
0.01633956787
0.01699435939
0.01758053747
0.01815715067
0.01881575204
0.01960966991
0.02053932815
0.02156942371
0.0226608676
0.02375348568
0.02475209832
0.02568301299
0.0265356295
0.02725106054
0.02785469127
0.02836256059
0.02877991923
0.02911535716
0.02937273805
0.02956885128
0.02975239322
0.02994051035
0.03011796685
0.03051688878
0.0310174296
0.0317900487
0.1125545832
0.1094039668
0.05111853256
0.02477079555
0.01427256003
0.009164427936
0.006608726012
0.005409469715
0.005073552453
0.005208035339
0.005615054478
0.006190259596
0.006873163655
0.007621747891
0.008403561093
0.009194629461
0.00997870537
0.01074546594
0.0114880263
0.01220349629
0.01289818998
0.01359016618
0.0142994919
0.01502665109
0.01573739092
0.01638641824
0.01697154279
0.01755137395
0.01820902764
0.01898598601
0.01988332511
0.0208724789
0.02191632592
0.02297021192
0.0239646282
0.02489283491
0.02575055975
0.026499265
0.02713672894
0.0276677056
0.02809608186
0.0283793948
0.02855226917
0.02874983813
0.02890713686
0.02904524774
0.02923421249
0.0295565956
0.03019507994
0.03094383353
0.1119460243
0.1094033265
0.05111352314
0.0247663054
0.01426555336
0.009154766821
0.006573256301
0.005347074798
0.004992462488
0.005101910085
0.005481305263
0.006027543606
0.006681115787
0.007400236294
0.008152934199
0.008915854694
0.009672976995
0.0104137802
0.01113162303
0.01182417542
0.01249784846
0.01317008003
0.01385937701
0.01456740012
0.0152628315
0.0158998894
0.01647810869
0.01706026064
0.01772589199
0.01851474858
0.01942405765
0.02042485319
0.02147919709
0.0225381335
0.02353781261
0.02450407498
0.02539391076
0.02617362516
0.02683794625
0.02738899941
0.02783160767
0.02807101352
0.02816479662
0.02832578169
0.02850289802
0.02867742028
0.02891024082
0.02924734311
0.02992332559
0.03051664509
0.1114572863
0.109402682
0.05111241405
0.02476553186
0.01426423323
0.009152813073
0.006570730356
0.005322282197
0.004950435603
0.005047781785
0.005414451842
0.005947375284
0.006587637875
0.007293829082
0.008034074316
0.008784889686
0.009530247511
0.01025985729
0.0109670865
0.01164905859
0.01231147219
0.01297181727
0.01364969886
0.01434603807
0.01502696843
0.01565388275
0.01622259039
0.01680098928
0.0174740443
0.01828553403
0.01921471839
0.02022890456
0.02128531197
0.0223346455
0.02332653234
0.02430974382
0.0252177683
0.02601893874
0.02670133322
0.02726403613
0.02771392191
0.02795828014
0.02805487579
0.02818162848
0.02836796362
0.02855293289
0.02879810418
0.02914556249
0.02983084363
0.0303495871
0.1112553693
0.1094020167
0.05111167404
0.02476484103
0.01426341935
0.009151853865
0.006569647454
0.005320240659
0.004935849147
0.005019352976
0.005376262471
0.00589820566
0.006526752602
0.00722076294
0.0079486362
0.008687065927
0.009419897504
0.01013661231
0.01083075848
0.01149963508
0.01214824317
0.0127927648
0.01345369881
0.01413324039
0.01479826042
0.01541199298
0.01596502779
0.01653631803
0.01722202273
0.01805103427
0.01899613239
0.02001994125
0.02108520503
0.02213818122
0.02315166189
0.02415302739
0.0250722454
0.02588346689
0.02657357243
0.02714164838
0.02759441175
0.02783988555
0.02793536531
0.02809238656
0.02826439856
0.0284510883
0.02869932195
0.0290476286
0.02973171395
0.02994957847
0.1106075357
0.1094013538
0.05111119169
0.02476455452
0.01426322168
0.009151685832
0.0065694612
0.005318783356
0.004933217998
0.005004029941
0.005356676841
0.00587402566
0.006498247861
0.007188112255
0.007911872656
0.008646104628
0.009374534633
0.01008637995
0.01077497236
0.01143717645
0.01207771777
0.0127134377
0.01336548407
0.01403592774
0.01469104141
0.0152863383
0.01582268968
0.01639353156
0.01708778644
0.01792100035
0.01886812618
0.01988823305
0.02094192842
0.02198875053
0.02302450832
0.02404499158
0.02497919827
0.02580363267
0.02650098616
0.02707028478
0.02752455578
0.02777995673
0.02795570035
0.02814441872
0.02828217791
0.02847194881
0.02871597102
0.02906046176
0.02974309964
0.02998022687
0.1106541524
0.1094006919
0.05111065193
0.02476411268
0.01426283111
0.00915130963
0.006569091751
0.005318122589
0.004932365025
0.005003295679
0.005355685217
0.005872288897
0.006495416295
0.007183845699
0.007905774007
0.008637615532
0.009362847435
0.01007019705
0.01075287668
0.01140848088
0.01204162594
0.01266815902
0.01330739139
0.01395912933
0.01458466164
0.01513615529
0.0156301362
0.01619276571
0.01689456889
0.01773599922
0.01868529347
0.0197260617
0.02081051761
0.02189468663
0.02297584743
0.0240424461
0.02498171333
0.02575494474
0.02642237266
0.02699720635
0.02745030787
0.02776823858
0.02802572383
0.02821285845
0.02834555643
0.0285295673
0.02875438854
0.02908073067
0.02974368983
0.0295546541
0.1098875867
0.1094001035
0.05111021536
0.02476383023
0.01426261944
0.009151122265
0.006568907502
0.00531724943
0.004930939532
0.005001717896
0.005353780271
0.005870093102
0.00649302255
0.007181276886
0.007902845647
0.008633902383
0.009357653969
0.0100619445
0.01074006954
0.01139142863
0.01201890779
0.01263367497
0.01325234934
0.01387125467
0.01444279121
0.0149126467
0.01535312846
0.0159002158
0.01659882154
0.01744981871
0.01842712891
0.01950850106
0.02063063332
0.02176836519
0.02298271302
0.02419265154
0.02521280909
0.02599060026
0.02645655957
0.02705126919
0.02754829616
0.02794773592
0.02823717183
0.02844886822
0.02860261268
0.02878432039
0.02900378887
0.02932775659
0.02999199498
0.03031228288
0.1111728169
0.1093995442
0.05110981278
0.02476353485
0.01426237255
0.009150890638
0.006568680404
0.005316788033
0.004930238969
0.005001171324
0.005353170101
0.005869135852
0.006491445279
0.007178879967
0.007899096056
0.008628063537
0.009348611934
0.01004822268
0.01072102038
0.01136600847
0.01198263934
0.01257216652
0.01315348621
0.0137149474
0.01418395933
0.0145365228
0.01489524817
0.01539033372
0.01609930984
0.01706237287
0.01821397065
0.01948346043
0.02075914928
0.02199738143
0.02333950952
0.02479390152
0.02507770276
0.02550572393
0.02592126286
0.0263123156
0.02684879717
0.0273017808
0.02764758044
0.02790489359
0.02809317997
0.0283300301
0.02860129078
0.0289669141
0.02965478946
0.02923815372
0.1093898407
0.1093990741
0.05110943892
0.02476327603
0.01426217382
0.009150724092
0.006568517185
0.005316285447
0.004929521607
0.005000531538
0.005352286235
0.005867921149
0.006489869503
0.007176811009
0.007896262751
0.008624001935
0.009341766753
0.01003762744
0.01070675911
0.01134580044
0.01194683416
0.01250368811
0.01302839541
0.01349977891
0.01380914971
0.01402240158
0.01443657841
0.01506953611
0.01588781322
0.01689559398
0.01805352863
0.01932720313
0.02064784092
0.02209735478
0.02376807174
0.02563422002
0.02732149651
0.02790966143
0.02802007587
0.02827386481
0.0287125563
0.02904945781
0.02920837127
0.02924970539
0.02931428708
0.02940701381
0.02954738981
0.02979321672
0.03036759579
0.03030184194
0.1102207083
0.1093986762
0.05110911304
0.02476303134
0.01426197505
0.009150552116
0.00656835128
0.005315969517
0.004929183598
0.005000431544
0.005352064005
0.005867415358
0.006488864615
0.007175100019
0.007893586116
0.008619669044
0.009333955304
0.01002497693
0.01068569781
0.01131398824
0.01189527084
0.01240887402
0.01285927153
0.0131826863
0.01337544424
0.01373068992
0.0142711269
0.01501075648
0.01584355244
0.01693307418
0.01820450788
0.01978789684
0.0212947518
0.02271364313
0.02448389856
0.0260792852
0.02896008967
0.03406620331
0.04432477497
0.04527981655
0.0445317383
0.04324104535
0.04196057052
0.04049810363
0.03892289011
0.03743878958
0.03613832337
0.03516836868
0.03468281149
0.03560109463
0.1147302163
0.1093983895
0.0511088839
0.02476286864
0.01426185027
0.009150453821
0.006568253432
0.005315714892
0.004928953474
0.005000323565
0.005352053595
0.005867142788
0.006488255339
0.007174045117
0.00789180672
0.008616577143
0.009328322905
0.01001433748
0.0106659467
0.01127940477
0.01183920864
0.01230143337
0.01266202271
0.01282251724
0.01311450391
0.01356760878
0.01422026651
0.01513762655
0.01544443396
0.01670331667
0.01709789538
0.01832492926
0.01993713521
0.02154109708
0.02328107219
0.02522743164
0.02724508303
0.02837554716
0.02900830269
0.03044446816
0.0314001072
0.03170935987
0.03170760832
0.03153564368
0.03119390405
0.03107953993
0.03102246107
0.0310958791
0.03153260847
0.03219544458
0.1125494979
0.1093982069
0.05110873686
0.02476275928
0.01426176317
0.009150380061
0.006568183513
0.005315584169
0.004928928561
0.005000372158
0.005352669129
0.005867717783
0.0064885499
0.007173907423
0.007890965333
0.008614566949
0.009324141908
0.01000670077
0.01065038722
0.01125149294
0.01179249716
0.01221351521
0.01250135361
0.01265627658
0.01299158927
0.01356431637
0.01442260792
0.01549046707
0.01646848081
0.01750235773
0.01808215583
0.01986185211
0.02321744542
0.02671462086
0.02803364644
0.02900415401
0.02917659527
0.02953104565
0.03003410729
0.03158709765
0.03298068623
0.0337413297
0.03381213142
0.03316463044
0.03234436979
0.03198945205
0.03172906373
0.03161934616
0.03189602905
0.03185079621
0.1116553305
0.1093981459
0.0511086937
0.0247627297
0.01426174065
0.009150362512
0.006568166819
0.005315541144
0.004928903598
0.005000312584
0.005352890847
0.005867969586
0.006488704887
0.007173918701
0.007890743962
0.008614047655
0.009322727972
0.01000455881
0.01064475998
0.01123520645
0.01176472782
0.01215501191
0.01236304584
0.012511566
0.01287278995
0.01352711964
0.01432582123
0.01532677561
0.01669780353
0.01739877062
0.02514644383
0.0306779384
0.03907760499
0.0472682835
0.04690119657
0.04584964215
0.04500688118
0.04312435693
0.04151424557
0.04012665369
0.0404236165
0.04078580974
0.04043717009
0.03962343386
0.03858104797
0.03781317154
0.03718487322
0.03691256542
0.03675919714
0.03770016313
0.1160698912
0.109398201
0.05110875253
0.02476277188
0.01426177169
0.009150387807
0.006568190711
0.005315585262
0.004928869904
0.005000323685
0.005352405343
0.005867436923
0.00648829478
0.007173674506
0.007890767142
0.008614416327
0.009324046765
0.01000657341
0.0106503317
0.01125145311
0.01179195456
0.01221331099
0.0125008185
0.01265724825
0.01299226176
0.01356506554
0.01442376074
0.01549141967
0.01646990416
0.01821926051
0.02157610406
0.03174955746
0.05110413284
0.07268452094
0.06566329378
0.06052067185
0.06201498697
0.05471508816
0.05053507239
0.04730727411
0.04455447628
0.04241785861
0.04071765006
0.03876583698
0.03676319098
0.03533223456
0.03415748977
0.03327350631
0.03290358889
0.03269935725
0.1094686749
0.1093983773
0.05110890029
0.0247628847
0.01426186113
0.009150463377
0.006568264026
0.005315736242
0.00492892999
0.005000292392
0.005351941149
0.005867074654
0.006488235644
0.007174061087
0.007891849344
0.0086166364
0.009328388697
0.01001441981
0.01066603283
0.01127970528
0.01183907224
0.01230158679
0.0126620055
0.01282267259
0.01311411376
0.0135659179
0.01421758027
0.01513640914
0.01544765887
0.01685584808
0.02312883605
0.04176552211
0.07967621297
0.194653245
0.1560222104
0.1284876862
0.11719695
0.0957765359
0.07958620008
0.06859723671
0.06064540822
0.05400010292
0.04874464063
0.04447106461
0.04093795767
0.03814251399
0.03591087643
0.03417452012
0.03311260284
0.032253425
0.1041818437
0.1093986642
0.05110912629
0.02476304677
0.01426199279
0.009150572704
0.006568371792
0.00531599262
0.004929171527
0.005000363435
0.005352012746
0.005867417685
0.006488903567
0.007175163873
0.007893664856
0.008619759893
0.009334061196
0.01002516178
0.01068602443
0.01131428978
0.01189527846
0.01240902122
0.01285937102
0.01318212962
0.01337425005
0.01372708729
0.01426578478
0.01500779332
0.01584643149
0.01853833615
0.0273478361
0.04960406175
0.09980505608
0.321789367
0.03658242725
0.03747402707
0.05042220937
0.05086346039
0.05472272386
0.05430078931
0.05250982588
0.05073951317
0.04910471702
0.04759508515
0.0461664862
0.04488115546
0.04373834843
0.04283597109
0.04242319207
0.04227958895
0.1190172504
0.1093990523
0.05110944851
0.02476328955
0.01426219046
0.009150740193
0.006568536875
0.005316329703
0.004929567016
0.00500055024
0.005352377332
0.005868068902
0.006490049091
0.007177019022
0.007896501825
0.008624257924
0.00934205788
0.01003788638
0.01070716167
0.01134641311
0.01194730508
0.01250402808
0.01302907405
0.01349964582
0.01381009469
0.01402730628
0.01444114736
0.01507366413
0.01589340135
0.01815949673
0.02510023311
0.04361611275
0.08066141006
0.1950034556
0.1567544118
0.1283231615
0.1103176817
0.09058486822
0.07449213367
0.06369687004
0.05670312111
0.05127994116
0.04720997269
0.04389209831
0.04114421743
0.03891028334
0.03711664568
0.03585080519
0.03476473579
0.03449968589
0.109687189
0.109399522
0.05110980876
0.02476353619
0.01426238022
0.009150903287
0.006568697503
0.005316817754
0.004930309249
0.005001199871
0.005353233553
0.005869230432
0.006491560818
0.007178997167
0.007899225123
0.008628205758
0.009348777507
0.01004837672
0.01072126065
0.01136645807
0.01198299826
0.01257281824
0.01315408742
0.0137180635
0.01419353213
0.01455455691
0.01490623786
0.0154121033
0.01618155083
0.01786780291
0.02204495749
0.03253049402
0.05152154021
0.07225006355
0.06537350137
0.05923516017
0.05472209596
0.04937037621
0.0451649747
0.04196063892
0.03974168307
0.03791281048
0.03633429619
0.03496510313
0.03377633783
0.03282248649
0.03207406527
0.03155741906
0.03149809071
0.03106006054
0.1090885781
0.1094000667
0.0511101907
0.0247638156
0.01426261095
0.009151126608
0.006568921753
0.005317320591
0.004931081785
0.005001851162
0.00535396514
0.005870322477
0.006493289785
0.007181574251
0.007903192403
0.008634305184
0.009358130636
0.01006247107
0.01074075727
0.01139222223
0.01201973541
0.0126347663
0.01325392572
0.01387955251
0.01446002593
0.0149346555
0.01537636047
0.01592934234
0.01663613121
0.01771327849
0.0197509239
0.02435774137
0.03232665264
0.03986667116
0.03850403535
0.03723103968
0.03624298263
0.03494919857
0.03375043068
0.03302906211
0.03242185508
0.0318768807
0.03135406804
0.03086803906
0.03042173981
0.03013183977
0.02994923254
0.02991833349
0.03026523577
0.02972565656
0.1087959324
0.1094006557
0.05111062835
0.02476410204
0.01426282957
0.009151318216
0.006569108273
0.005318162065
0.004932436836
0.005003341045
0.005355770327
0.005872404856
0.006495532019
0.00718394797
0.007905866527
0.008637711082
0.009362946073
0.01007032215
0.01075306737
0.01140871026
0.01204182831
0.01266843913
0.01330850669
0.01396330072
0.01459247337
0.01514328234
0.01563695315
0.01620198217
0.01690378693
0.01778177566
0.01898771464
0.02099206474
0.02414050169
0.02723630463
0.02764969378
0.02806053042
0.028447623
0.02870148038
0.02891737555
0.02910683753
0.02922815192
0.02925692762
0.0292664101
0.02923906147
0.02918704447
0.02920300198
0.02928206571
0.0294813014
0.03003470074
0.02998979409
0.110134688
0.109401306
0.05111114864
0.02476452434
0.01426321042
0.009151683196
0.006569470418
0.005318874244
0.004933383206
0.005004189
0.005356899168
0.005874312592
0.006498589304
0.007188517211
0.007912361307
0.008646696276
0.009375239793
0.01008723612
0.01077599522
0.01143834605
0.01207893798
0.01271472936
0.01336697152
0.01403751284
0.01469203247
0.01528462409
0.01581868346
0.01639012015
0.01708718928
0.01792606476
0.01891776825
0.02010852133
0.0216104686
0.02314447719
0.0240467374
0.02493236552
0.02573640325
0.02644122329
0.02703143366
0.02751083323
0.02788540306
0.02807160897
0.02818867457
0.02832833118
0.02842383147
0.02857826029
0.02879096669
0.02910901866
0.02976584502
0.02994565507
0.1104737847
0.1094019668
0.05111161682
0.02476480878
0.01426341191
0.009151869564
0.006569678033
0.005320358792
0.004935964527
0.005019444071
0.005376403176
0.005898363794
0.006526872176
0.007220830362
0.007948661483
0.0086870587
0.009419878045
0.01013662718
0.01083082573
0.01149972094
0.01214829281
0.01279281016
0.01345397737
0.01413374724
0.01479847297
0.0154109723
0.01596249869
0.01653439476
0.01722297847
0.01805271731
0.01900306997
0.02004338229
0.02117605305
0.02232430595
0.02331982558
0.02430550408
0.02520986408
0.02600828451
0.02668694326
0.02724482514
0.02768875761
0.02792627898
0.02801506334
0.02816764943
0.02833702298
0.0285178484
0.02876189431
0.02910789447
0.02979202834
0.03016620988
0.1109288403
0.1094026216
0.05111232292
0.02476546198
0.0142641863
0.009152786915
0.006570717514
0.005322137773
0.004950277601
0.005047695172
0.005414473825
0.005947481955
0.006587849303
0.007294178958
0.008034576251
0.008785556584
0.009531118754
0.01026098673
0.01096848194
0.01165064787
0.01231309139
0.01297340045
0.01365127427
0.01434711222
0.01502733115
0.01565249277
0.01621928651
0.01679649815
0.01747018874
0.01828333576
0.01921527181
0.02022882846
0.02129061709
0.02234739169
0.02333630001
0.02431562998
0.02521995406
0.02601943948
0.02670225284
0.02726660462
0.02771867976
0.02796584764
0.02806550749
0.02819622207
0.02838382298
0.0285701756
0.02881634008
0.02916484579
0.02985179814
0.03042328926
0.1113479947
0.1094032649
0.05111345921
0.02476626922
0.01426554365
0.009154775162
0.006573266724
0.005347224767
0.004992830092
0.005102434252
0.005482328197
0.006028581151
0.006681953497
0.007400907203
0.008153494045
0.008916317152
0.009673371483
0.01041415611
0.01113189651
0.01182419956
0.01249737284
0.01316907475
0.01385866727
0.01456686142
0.01526124595
0.01589785474
0.01647557242
0.01705781299
0.01772361802
0.01851462965
0.01942350027
0.02042398848
0.02147781765
0.02253735794
0.02353891883
0.02450733406
0.0253999343
0.02618311911
0.02685068275
0.02740461464
0.02784978818
0.0280914614
0.02818729136
0.02831644205
0.02849626611
0.0286759649
0.02891376092
0.0292556308
0.02993732392
0.03061094808
0.1116053972
0.1094038958
0.05111837635
0.02477065886
0.01427245221
0.009164323034
0.006608652745
0.005409262498
0.005073231263
0.005207538319
0.005614044387
0.006189375799
0.00687245435
0.007621317926
0.008403443334
0.00919486185
0.0099793085
0.01074632685
0.01148900752
0.01220451742
0.01289919182
0.01359147693
0.01430151379
0.0150291168
0.01574031842
0.01638894558
0.01697342223
0.01755583271
0.01821289337
0.01899031396
0.01988948009
0.0208766957
0.02192104622
0.02297631641
0.02397246741
0.02490027487
0.02575764436
0.02650691203
0.02714571004
0.02767850484
0.02810894909
0.02839471051
0.0285700337
0.02873507026
0.02889479901
0.02903797984
0.02923161274
0.02958524574
0.03022267771
0.03101008454
0.1120294263
0.1094044814
0.05114048871
0.02479000488
0.01429771445
0.009258559201
0.006726043689
0.005557628679
0.005259496443
0.005434965129
0.005883730291
0.006500320667
0.007224278514
0.008010751903
0.008827925105
0.009650267168
0.01046153844
0.01125156993
0.01201341738
0.01274507642
0.01345446829
0.0141605581
0.01488391426
0.01562417279
0.01634516213
0.01700159639
0.01758680288
0.01816764603
0.01882423173
0.01961646992
0.02054581707
0.02157633874
0.02266722812
0.02376327138
0.02476646549
0.02569625107
0.02654879909
0.02726519596
0.02787047427
0.02838028771
0.02879976199
0.02913603851
0.02939424407
0.02959967533
0.02979848815
0.03000380156
0.03019454422
0.03060085463
0.03109448923
0.03189734974
0.1126766382
0.1094173846
0.05123181047
0.02488721581
0.0144652001
0.009479062183
0.006947010134
0.005886126413
0.005693464447
0.005978551525
0.006541012299
0.007272611569
0.008106506724
0.008995553535
0.009902387588
0.01080317326
0.01168003508
0.01252355085
0.01332974522
0.01409933993
0.01483831319
0.01556550794
0.01630347353
0.01705243554
0.01777094219
0.0184100769
0.01896186305
0.01950295643
0.02012580004
0.02088883284
0.02180598553
0.02285025414
0.02397275083
0.02511667197
0.02611793114
0.02703585033
0.02786879921
0.02846539658
0.02896481894
0.02940467949
0.02977603933
0.03007700563
0.03042322861
0.03075781225
0.03107287298
0.03137257104
0.03162290146
0.0320211909
0.03232130327
0.0330555045
0.1131272247
0.1096137307
0.05158137494
0.02583022292
0.01520670221
0.0101002049
0.007676387243
0.006783655116
0.006714224662
0.007108631141
0.007779154844
0.00861486432
0.009542357527
0.01050971608
0.01148043382
0.01242999601
0.01334388352
0.0142120796
0.01502953937
0.01579773048
0.01653411935
0.01726610022
0.01801697482
0.01877940703
0.01950720425
0.02014131387
0.02068046603
0.02121038746
0.02184455524
0.02265243201
0.02365177761
0.02481802551
0.02609939402
0.02743331737
0.02867901503
0.02969656273
0.03066736734
0.03117220809
0.03155934817
0.03188177083
0.03216065762
0.03250581703
0.03301826159
0.03353576928
0.03402685496
0.03449435845
0.03488899586
0.03541359127
0.03563116078
0.03575558259
0.1145393439
0.1106576629
0.05025755487
0.02634532956
0.01614960209
0.01146252838
0.009327094259
0.008540216709
0.008550438226
0.009067234186
0.009910431871
0.0109525807
0.01210170305
0.01329624362
0.01449557007
0.0156687956
0.01678810719
0.01783076632
0.01878817713
0.01967303382
0.02051809935
0.0213592169
0.02222333656
0.02309511089
0.02387522411
0.02444315887
0.02479898436
0.02507565879
0.02544504032
0.02600895999
0.02679930589
0.027793759
0.02895977603
0.0302702573
0.03157451985
0.03262558218
0.03365785689
0.03424812586
0.03467808693
0.03504368005
0.03537375344
0.0359514012
0.03669379568
0.03741599834
0.03808177965
0.0386948086
0.03922520404
0.03977413631
0.0397829982
0.04126006986
0.1214906337
0.1173505316
0.04959738015
0.02658836935
0.01743012955
0.01357110203
0.01219513012
0.01218144314
0.01298214953
0.01428001331
0.0158708278
0.0176058919
0.01937666033
0.02111441002
0.02278296211
0.02436260878
0.0258336411
0.02717245919
0.02836470628
0.02943545726
0.03045339265
0.0314988505
0.03263479072
0.03385638163
0.0350130846
0.03589007081
0.03645721233
0.03692860265
0.03762088006
0.03863290475
0.03998288854
0.04176294343
0.04465153469
0.04884347932
0.05320264273
0.05428070154
0.05490402601
0.05534391291
0.05561519331
0.05581332367
0.05596892863
0.05650229642
0.05712411436
0.0576980391
0.05818755276
0.05859850582
0.05890264055
0.05922789854
0.05908277166
0.06168491609
0.1683922961
0.1103609049
0.04587605636
0.02162297634
0.01249992812
0.008517544489
0.006748165844
0.006075594144
0.006030449049
0.006383886496
0.007004277493
0.007804025372
0.00871828609
0.009696395524
0.0106991857
0.01169814909
0.01267228853
0.01360436757
0.01448070641
0.01529898345
0.01607379257
0.01683333443
0.01759815734
0.01836061127
0.01905320978
0.01957408676
0.01988045471
0.0200868587
0.02032492737
0.02079601037
0.02178574927
0.02403436391
0.02843897354
0.03560224115
0.04375131854
0.04369071114
0.04216316413
0.04088609315
0.03957696284
0.03843192951
0.03738273994
0.03645324423
0.03564291935
0.03493635773
0.03431826443
0.03377595563
0.03330374183
0.03290814927
0.03288282603
0.03337899574
0.1120819689
0.100326734
0.04236354737
0.02071876777
0.01103674448
0.006477175374
0.004105572331
0.002768005055
0.001963435229
0.00145404256
0.001118166522
0.0008895351989
0.0007300732045
0.0006169135842
0.00053586472
0.0004779719872
0.0004377165525
0.0004121658645
0.0004008939018
0.0004061106079
0.0004325646775
0.0004872850807
0.0005781646988
0.000712807787
0.0008963694704
0.001131727363
0.001423726824
0.001777474573
0.002192607245
0.002658351515
0.003160179846
0.003679878768
0.004223742769
0.004802531471
0.005380436416
0.005745393869
0.006030459355
0.006250005291
0.006412626034
0.006541069155
0.006640802756
0.006719900056
0.006783217739
0.006833583488
0.006874044127
0.006906433722
0.006932669479
0.006946912868
0.008791826723
0.008653143366
0.01711828207
0.09870644666
0.04169511658
0.02048568675
0.01095699733
0.006447509889
0.004090515949
0.00275540595
0.001948523852
0.001434574669
0.00109289535
0.0008576891129
0.0006911585076
0.0005706310001
0.0004820797407
0.0004167172856
0.0003692779939
0.0003371526543
0.0003202508567
0.0003207453233
0.0003431375659
0.0003937847594
0.0004805096102
0.0006118119648
0.0007956601396
0.001038665753
0.001344962679
0.001714543919
0.002141522839
0.002614790498
0.003117392272
0.003628228816
0.004123837504
0.004582089575
0.004983214729
0.005313679527
0.005555959073
0.005736325725
0.005861522263
0.005967593769
0.006057234343
0.006130237051
0.006191564686
0.006244547154
0.006292694949
0.006337034365
0.006381244917
0.006425499613
0.008416223533
0.00827524479
0.01266066639
0.09880069435
0.04216212882
0.02081451397
0.01101700183
0.006481764129
0.004107602373
0.00276385304
0.001952422176
0.001435990609
0.001092938413
0.0008569718379
0.0006900434508
0.0005693431033
0.0004807254342
0.000415337325
0.0003678684672
0.0003357372023
0.0003187558934
0.0003190495701
0.0003409357128
0.0003907372406
0.0004763055074
0.0006061968443
0.0007884847858
0.001029626778
0.001333673998
0.001700565189
0.002124638959
0.002594001016
0.003091122619
0.003593525097
0.004077112329
0.004520273113
0.004902820981
0.005208910198
0.005447783407
0.00562559951
0.005749229452
0.005827221648
0.005877206192
0.00591211828
0.005935864184
0.005952544809
0.005965649755
0.005977671872
0.005993942287
0.006372485734
0.009908246172
0.009672320562
0.01379873662
0.09920875816
0.04287530056
0.02082348631
0.01093815024
0.006447556902
0.004087371643
0.00275011278
0.001942268318
0.001427754929
0.001085596944
0.0008498491406
0.0006826719591
0.0005613791571
0.00047192795
0.0004055292904
0.0003569251443
0.0003235718227
0.0003053071438
0.0003042645114
0.0003247661586
0.0003731145384
0.0004572151492
0.0005857539572
0.0007670773327
0.001008025151
0.001312627284
0.001680488625
0.002105269194
0.002574117471
0.003069247267
0.003568964517
0.004049357088
0.004487810419
0.004865142839
0.005167381002
0.005404377067
0.005579728956
0.005700521595
0.005776018236
0.005816461981
0.005832622328
0.005837830869
0.005837818246
0.005836070942
0.005838143855
0.006223573813
0.006838021741
0.01016029572
0.009859098462
0.01387689423
0.09920928009
0.04287344131
0.0208268858
0.0109325449
0.006446697394
0.004078268002
0.002744070588
0.001937928704
0.001424406103
0.001082849916
0.000847492731
0.0006805770625
0.00055947193
0.0004701575782
0.0004038597172
0.0003553314654
0.0003220408837
0.0003038399576
0.0003028501163
0.000323377073
0.0003717297617
0.0004558491699
0.0005845099513
0.0007660591043
0.001007243903
0.001311881287
0.001679556514
0.002103971842
0.00254538157
0.003041134808
0.003604049469
0.00411967875
0.004552059522
0.004919434792
0.005216904366
0.005450220341
0.005621697678
0.005738421525
0.005809811744
0.005846074693
0.005853859756
0.005845748606
0.005828238379
0.005840735084
0.005983184173
0.006673729418
0.007200822656
0.01031619049
0.009997652239
0.01392430947
0.0992087887
0.04287219393
0.02082745723
0.01093162605