/*--------------------------------*- C++ -*----------------------------------*\
| =========                 |                                                 |
| \\      /  F ield         | OpenFOAM: The Open Source CFD Toolbox           |
|  \\    /   O peration     | Version:  2.2.1                                 |
|   \\  /    A nd           | Web:      www.OpenFOAM.org                      |
|    \\/     M anipulation  |                                                 |
\*---------------------------------------------------------------------------*/
FoamFile
{
    version     2.0;
    format      ascii;
    class       volScalarField;
    location    "4";
    object      k;
}
// * * * * * * * * * * * * * * * * * * * * * * * * * * * * * * * * * * * * * //

dimensions      [0 2 -2 0 0 0 0];

internalField   nonuniform List<scalar> 
86889
(
0.01361570511
0.00893352102
0.007385485445
0.007156766115
0.007789805173
0.009072664828
0.01083926623
0.01294539824
0.01526803744
0.01771007657
0.02019199019
0.02265210773
0.02505137057
0.02737049551
0.02959967905
0.03172674462
0.03373768905
0.03562763465
0.03742609843
0.03919660806
0.04101717419
0.04295531807
0.04502957821
0.04715996614
0.0492373487
0.05129286234
0.05352598019
0.05621382307
0.05945577707
0.06325608473
0.06762428677
0.07290379693
0.0790559083
0.08519911681
0.08908295119
0.09244745117
0.09541390382
0.09797244194
0.1001626128
0.1019920474
0.1037367585
0.1052460643
0.1064695492
0.1074266649
0.1081637967
0.1087080624
0.1091678224
0.1093170803
0.1110347508
0.1701338
0.01309531106
0.009722216588
0.007202875449
0.00611586144
0.005909565309
0.006321879155
0.007189905066
0.008394219628
0.009840902812
0.01145091579
0.01315598741
0.01490245737
0.01665433592
0.01838787068
0.02008319495
0.02172044685
0.02328468573
0.02477332584
0.02620709273
0.02762320115
0.0290694012
0.03058313974
0.03217333792
0.03378988636
0.03538136087
0.03700857368
0.03884493582
0.04109389357
0.04386947229
0.04721981687
0.05108097857
0.05535292103
0.05989527757
0.06447199087
0.06877625101
0.0728921552
0.0764035581
0.07957100398
0.08236903227
0.08478546969
0.0870405474
0.0890983808
0.09084888746
0.09231417806
0.0935379507
0.0945471988
0.09544280477
0.09587328029
0.0971664992
0.1486662289
0.01300593603
0.01050153221
0.007002786077
0.005417910731
0.004707849165
0.004691892645
0.005304811661
0.006296186803
0.007509986514
0.008857335161
0.01028106649
0.01174006633
0.01320345224
0.0146488025
0.01606119208
0.01743170239
0.01875617916
0.02003603019
0.0212817672
0.0225188698
0.02378781913
0.02512802795
0.02656467992
0.02809852746
0.02973451886
0.0315347784
0.03363471826
0.03617953842
0.03925968084
0.04288738471
0.0470001051
0.05147037189
0.05613828507
0.0607708652
0.06513924296
0.06928600966
0.07279708315
0.07596593362
0.07874815016
0.08113249409
0.08320951614
0.08509196797
0.08668992916
0.08802611677
0.08914511815
0.0900663161
0.09095607506
0.09160342336
0.09222478444
0.1433822692
0.01298775839
0.01028593923
0.006645147563
0.005058408779
0.004322682907
0.004104097108
0.004497607536
0.005350963731
0.006466191645
0.007733743928
0.00909254145
0.01050295157
0.01193500577
0.0133639037
0.01477235611
0.01614957779
0.01749134365
0.01879929838
0.02008198087
0.02135749586
0.02265982428
0.02403181895
0.02550415413
0.02708383889
0.02877778851
0.03064737558
0.03282076117
0.03543964974
0.03859035344
0.04228116805
0.04644361961
0.05095076352
0.05564038654
0.06025476818
0.06470679162
0.06888548365
0.07258298581
0.07586854241
0.07872643451
0.08113765197
0.08311961838
0.08478803193
0.08614877636
0.08724266034
0.08812420065
0.0888143542
0.08952592225
0.09023497527
0.09127483351
0.1429015293
0.01298741318
0.01023148096
0.006596728364
0.00497584644
0.00418954539
0.003937556402
0.00419606133
0.004935336105
0.005943988191
0.007108502495
0.008367961272
0.009686728559
0.01103575318
0.012392839
0.01374105533
0.01506951603
0.01637295714
0.01765079489
0.01891008141
0.0201712418
0.02147020075
0.02285029407
0.02434355105
0.02596045254
0.02771390693
0.02966631362
0.03193789833
0.03466688222
0.0379332178
0.04173409573
0.0459928977
0.05058782046
0.0553486382
0.06006335969
0.06461793195
0.06888440539
0.07272707108
0.07611012932
0.0790141508
0.08143884061
0.08341348038
0.08497788656
0.08619475899
0.08715071924
0.08790980159
0.08851986771
0.0892235099
0.09008798214
0.09111171785
0.1429671478
0.0129873076
0.01021824137
0.006584399288
0.004959561982
0.004133339806
0.003848779596
0.004058659699
0.004750244202
0.005712734709
0.006833623258
0.008052024128
0.009331768095
0.01064566022
0.01197106977
0.01329103538
0.01459484825
0.01587742345
0.01713824963
0.01838354861
0.01963271067
0.0209216407
0.02229438493
0.02378444741
0.02540360713
0.0271659338
0.02913510253
0.03143215824
0.03418939394
0.03747857681
0.04129235754
0.04555668587
0.05016080109
0.05494609605
0.05971200025
0.0643164443
0.06863350895
0.07253972201
0.07597216192
0.0789058708
0.08134368787
0.08327707391
0.08476731577
0.08596611514
0.08687913886
0.08758462089
0.08820501611
0.08887082569
0.08985724518
0.09083532319
0.1427640716
0.01298724172
0.01021565162
0.006581546521
0.004955176195
0.004126851876
0.00382292899
0.004001731152
0.004665809326
0.00559544691
0.006681712958
0.007864722476
0.009109097736
0.01038769736
0.01167821327
0.01296417537
0.01423503248
0.01548551576
0.01671541541
0.01793162645
0.01915387469
0.02041789396
0.02176686685
0.02323603051
0.02484049842
0.02659462557
0.02856439732
0.03087503835
0.03365601167
0.0369734794
0.04082429512
0.04512604975
0.04977409197
0.05460577714
0.05941694312
0.06408963497
0.06846611713
0.0724251318
0.0759012913
0.07886691162
0.08132825808
0.08323541938
0.08466661762
0.08583336802
0.08675539361
0.08748828859
0.08814558478
0.0888219305
0.08983467191
0.09067777327
0.1425516635
0.01298718425
0.0102151336
0.006580947764
0.004954216099
0.004125386586
0.003820893788
0.003978690011
0.004619627922
0.005529986854
0.006596711308
0.007759838013
0.008984531186
0.01024397781
0.01151592497
0.01278375671
0.01403692572
0.01527040999
0.01648403074
0.01768420206
0.01889008099
0.02013764489
0.02147135367
0.02292613581
0.02451526881
0.02625983141
0.02822315106
0.0305351509
0.03332621645
0.03666987686
0.04055511031
0.04489090626
0.04956521981
0.05441389603
0.05924294414
0.06395128767
0.06836172179
0.07235526774
0.07586028364
0.07884776607
0.08132608049
0.08324560499
0.08468463458
0.08582818061
0.08675667838
0.08749577051
0.08816104476
0.088841608
0.08985856845
0.09063799987
0.1424831091
0.01298712528
0.01021502697
0.006580782659
0.004953949408
0.004124980355
0.003820328418
0.003977012995
0.00460397404
0.005495340383
0.006547188956
0.007694158475
0.008901912658
0.01014391968
0.01139821028
0.01264834642
0.01388366252
0.01509894584
0.01629423812
0.01747617316
0.01866333427
0.01989063744
0.02120356626
0.02263834114
0.02421023303
0.02594307787
0.02789573609
0.0302075935
0.03301500711
0.03638872752
0.04030528373
0.04466911109
0.04937115346
0.05424254558
0.05910601625
0.06384298981
0.06827378572
0.07228567814
0.07580729173
0.07880928821
0.08129871924
0.08322586534
0.08466795987
0.0858367568
0.08675322126
0.08748847789
0.08815067173
0.08882482081
0.08983512103
0.09039545558
0.1420994412
0.01298706711
0.01021493444
0.006580707634
0.004953877644
0.00412489562
0.003820206772
0.003975355163
0.004600852358
0.005475994612
0.006521017371
0.007660853177
0.008861796069
0.01009723325
0.01134505748
0.01258872274
0.01381745958
0.01502581945
0.01621365233
0.01738719764
0.01856480478
0.01978203717
0.02108596487
0.02251303763
0.02407758808
0.02579838087
0.02774311754
0.03006338795
0.03289293511
0.03628044896
0.04021013068
0.04458316623
0.04928821364
0.05416687099
0.05905935423
0.06382127518
0.0682710435
0.07229530035
0.07582175658
0.07882427927
0.08131831889
0.08325548042
0.08476156222
0.08595782329
0.08685080514
0.0875855721
0.08823719938
0.08889981168
0.08990234093
0.09047731997
0.142182191
0.01298700875
0.01021489202
0.006580650044
0.004953808308
0.004124804711
0.003820090488
0.003974876294
0.004600145115
0.0054754424
0.006520242654
0.007659357506
0.008859227916
0.01009325488
0.01133927544
0.01258058404
0.0138061663
0.01501011231
0.0161921637
0.01735922515
0.01852980118
0.01973919769
0.0210335139
0.02244751956
0.02398893893
0.02567444284
0.02758829001
0.02991208596
0.03276533778
0.03617667465
0.0401213178
0.04452313195
0.04925915763
0.0541683086
0.05909623479
0.06390062848
0.06835547851
0.07233470541
0.07583247869
0.07883255083
0.08131897774
0.08330023247
0.0848682004
0.08606479524
0.08695392445
0.08767656297
0.08829891975
0.08893554546
0.08991202028
0.09018692177
0.141702068
0.01298695705
0.0102148311
0.0065805982
0.004953759914
0.004124747314
0.003820015481
0.003973961243
0.004598534603
0.005473601431
0.006518012305
0.007656808052
0.008856493066
0.01009040499
0.01133618382
0.01257689338
0.01380125163
0.01500250631
0.01618046804
0.01734372795
0.01851038134
0.01971180048
0.02099061361
0.02237864302
0.02387619405
0.02549228511
0.02736545799
0.0296877868
0.03255499172
0.03599901652
0.03998878703
0.04444746938
0.04922869912
0.05416295587
0.05920292905
0.0641630206
0.06873682237
0.07274314246
0.07608224149
0.07910675428
0.08163025317
0.0836722457
0.08525729173
0.08646068162
0.08735262662
0.08805781503
0.08865868726
0.08927660897
0.09023715089
0.09086789364
0.1426417468
0.01298690789
0.01021480831
0.006580566476
0.004953723038
0.004124697762
0.003819951415
0.003973609147
0.004597898762
0.005473151555
0.006517540234
0.007656037197
0.008855161318
0.01008832459
0.01133284108
0.01257157935
0.01379288928
0.01498965322
0.01616249657
0.01732053043
0.01847931297
0.01966010697
0.02090723756
0.02224436124
0.023654654
0.02517319196
0.02697939785
0.02926667521
0.03215971987
0.03572266405
0.03988185388
0.04452024765
0.04943529655
0.05444678952
0.05958574112
0.06475150017
0.06877677882
0.07260137528
0.0759804186
0.07888391707
0.08147434656
0.08358449209
0.08523107494
0.0864794892
0.08739970262
0.08814547578
0.08877899659
0.08942008435
0.0903861994
0.09041470082
0.1417690269
0.01298686657
0.0102147504
0.006580517484
0.004953676927
0.004124650636
0.003819890881
0.003973131089
0.00459715326
0.005472486748
0.006516629932
0.007654810216
0.008853607599
0.01008633838
0.01133019194
0.01256785019
0.01378661565
0.01497990613
0.01614940539
0.01730384531
0.0184511013
0.01960476077
0.02080236115
0.02206084296
0.02333001216
0.02473106986
0.02659745021
0.02901526613
0.03201623779
0.03563888214
0.03982777964
0.04449012831
0.04943616781
0.05457792258
0.06007903147
0.06574176222
0.07110333159
0.07490813488
0.07760004587
0.08014357636
0.08257507573
0.08449589519
0.08583071753
0.0867107761
0.08738856843
0.08791928127
0.08835812734
0.08881714539
0.08960531796
0.08896143228
0.1404569638
0.01298683159
0.01021470878
0.006580477544
0.004953636188
0.00412460878
0.003819837765
0.003972888516
0.004596884786
0.005472507458
0.006516565867
0.007654501092
0.008852842875
0.01008492465
0.01132789082
0.01256400126
0.01377947126
0.01496812714
0.01612964398
0.01727513312
0.0184054939
0.01952197361
0.02065502005
0.02178197131
0.02294649289
0.02447277533
0.02646221114
0.02899954385
0.03199937753
0.03571087545
0.03994333302
0.04487915436
0.04997932705
0.05503826489
0.06071597438
0.06634170982
0.07295133001
0.07950072963
0.08488919095
0.08710197328
0.08829193291
0.08860109194
0.08818829974
0.08730800918
0.08617826848
0.08506995242
0.08398384554
0.08313113587
0.08277289638
0.08206546001
0.1344809334
0.01298680639
0.01021467374
0.006580447295
0.004953607302
0.004124581993
0.003819802244
0.003972661103
0.004596684998
0.005472459485
0.006516660429
0.007654370818
0.008852417049
0.01008410695
0.01132642563
0.01256133629
0.01377443444
0.01495836232
0.01611119283
0.01724287511
0.01835302093
0.01942368137
0.02047806941
0.02145926441
0.0227078896
0.02432803354
0.02642371227
0.02912646353
0.03135999541
0.03526369073
0.03855276902
0.04325662043
0.04858930766
0.05396928589
0.05963280403
0.06545933361
0.07118884958
0.07562563345
0.07889902497
0.08255498096
0.08533596556
0.08715922236
0.08826278237
0.08879527811
0.08881339762
0.08901408697
0.08912362203
0.08927857271
0.08980313259
0.08943694717
0.1411804603
0.01298679033
0.01021465546
0.006580429707
0.004953589703
0.004124564118
0.003819780231
0.003972562963
0.004596713824
0.005472588244
0.006517446682
0.007655193562
0.008853024937
0.01008433875
0.01132600865
0.01255981875
0.01377085834
0.0149514834
0.01609678423
0.01721660628
0.01830850342
0.01934106225
0.02032844306
0.02127680307
0.02255689831
0.02427943709
0.02662066346
0.02947368337
0.03258206957
0.03608640783
0.03907352375
0.04413389917
0.05087444366
0.05773882206
0.06278210672
0.06745944574
0.07093920739
0.07438726092
0.07769079355
0.08134676841
0.0843709316
0.08644838092
0.08760047898
0.08769298341
0.08729324513
0.08731613717
0.08730446949
0.08737249887
0.08784087638
0.08715203606
0.1389543327
0.01298678497
0.01021464967
0.00658042456
0.004953584616
0.004124559652
0.003819774739
0.003972525009
0.00459669698
0.005472534354
0.006517709028
0.007655518803
0.008853283179
0.01008447981
0.01132594225
0.01255948086
0.01376968359
0.01494961511
0.01609162787
0.01720141366
0.01828227804
0.01928561722
0.02019855771
0.02111826855
0.02241769259
0.02420826359
0.02644515019
0.02926412478
0.03294731887
0.03600713902
0.04285214775
0.05092246785
0.06154596775
0.07172680961
0.07507046078
0.07758128523
0.0799025797
0.08076049514
0.08170361137
0.08240327961
0.08404344665
0.08537122767
0.08581319727
0.08533974643
0.08434920602
0.08372371436
0.08312834577
0.08282590919
0.0827563094
0.08231992002
0.1346661165
0.01298678981
0.01021466405
0.006580435823
0.004953594076
0.004124568241
0.00381978471
0.003972560642
0.00459663977
0.005472520833
0.006517135681
0.007654842618
0.008852681952
0.01008400585
0.01132570275
0.01255955434
0.01377064059
0.01495122476
0.01609657248
0.01721638506
0.01830780663
0.0193406547
0.02032772409
0.02127845702
0.02255840822
0.02428058264
0.02662194177
0.02947406118
0.03258137326
0.03668761278
0.04198583878
0.05381636094
0.07239637647
0.09089920935
0.08995743526
0.08969150832
0.09310685776
0.08977222095
0.08859155554
0.08782206095
0.08699807223
0.08627707114
0.08558392126
0.08432931395
0.08277795011
0.08163783259
0.08063189562
0.07984958508
0.07959828424
0.07901020658
0.1304087365
0.01298680532
0.01021468664
0.006580456988
0.004953614586
0.004124588471
0.003819810158
0.0039726825
0.004596653132
0.005472414986
0.00651652072
0.007654266498
0.008852354233
0.01008407324
0.0113264109
0.01256132861
0.01377442161
0.01495835084
0.01611116853
0.01724302038
0.01835273851
0.01942360221
0.02047774589
0.0214589276
0.02270716233
0.02432530837
0.02641845349
0.02912160715
0.03135662859
0.03538002969
0.04347198047
0.06180373203
0.0918607965
0.1517571654
0.1375647793
0.1267234689
0.1215249973
0.1105373615
0.1018341583
0.09624235085
0.09223532985
0.08839968495
0.08515186694
0.08224872998
0.07959093741
0.07741845701
0.07557107649
0.07408069737
0.07321631931
0.07166802178
0.1216242465
0.01298683055
0.0102147181
0.006580484364
0.004953643395
0.004124617265
0.003819848551
0.003972904708
0.004596858896
0.005472412633
0.006516480602
0.007654465468
0.008852840047
0.01008494097
0.0113279134
0.01256402468
0.01377949655
0.01496821246
0.01612984605
0.0172752868
0.01840533674
0.01952186468
0.02065474247
0.02178088772
0.02294466637
0.02446807292
0.02645298962
0.0289905195
0.03199302156
0.03703343469
0.04742356568
0.06822713325
0.1046779281
0.187914851
0.203552919
0.2010726072
0.2050423325
0.2014339878
0.1854381299
0.1766807717
0.1719647007
0.166915477
0.1621094834
0.1579432534
0.15380577
0.1498979102
0.1461230579
0.1425811728
0.1397331263
0.1315301073
0.1759370802
0.01298686467
0.01021476195
0.006580525868
0.004953685938
0.004124660118
0.003819904431
0.003973174919
0.004597198411
0.005472499611
0.006516717057
0.00765495488
0.008853782982
0.01008653852
0.01133041521
0.01256807726
0.01378685564
0.01498008873
0.01614968466
0.01730427101
0.0184513375
0.01960478848
0.02080252975
0.02205998607
0.0233296433
0.02473242332
0.02659754202
0.02901285103
0.03201177587
0.03667972941
0.04557233344
0.06362285875
0.09296375501
0.1522280641
0.1387838231
0.1276009919
0.1210883729
0.1109430825
0.1019674617
0.09592542352
0.09201266142
0.08878252721
0.08622089341
0.08394665011
0.08189435148
0.08008779691
0.07854557142
0.07740762548
0.07651513013
0.07681317841
0.1279789421
0.01298690595
0.01021481031
0.006580568194
0.004953726311
0.004124703916
0.00381996132
0.003973633571
0.004597969942
0.005473173501
0.006517593736
0.007656116744
0.00885525404
0.01008840817
0.01133292164
0.01257165381
0.01379296133
0.01498968596
0.01616257191
0.01732074589
0.01847937415
0.01966032271
0.02090722803
0.02224626114
0.02366079835
0.02518832521
0.02698827721
0.02928323618
0.03222481899
0.03638324288
0.04300621795
0.05492999345
0.07299548611
0.09067806786
0.08961015287
0.08846492157
0.08808317814
0.08654314304
0.08544577918
0.08469337505
0.08427230989
0.08379931965
0.08322397443
0.08257202374
0.08187597897
0.08121876372
0.08066797487
0.08030865281
0.08044595385
0.08088478384
0.1326221955
0.01298695384
0.01021482486
0.006580594607
0.004953758595
0.004124751704
0.003820026233
0.003974037386
0.004598695048
0.005473753716
0.006518219416
0.007657059971
0.008856779581
0.01009071471
0.01133653134
0.01257728055
0.01380168901
0.01500296531
0.01618103756
0.01734433653
0.01851092866
0.01971244965
0.02099148788
0.02238501112
0.02388929154
0.02551476715
0.02739200593
0.02971720316
0.03258845666
0.03621630934
0.04106608498
0.04833070269
0.0583780126
0.06787821577
0.07050045264
0.07295890767
0.07536533141
0.07719095076
0.07872380608
0.08021664787
0.08141313033
0.0822982375
0.08288696676
0.08324071605
0.08341517795
0.08353361373
0.08364980601
0.08387164786
0.08450230523
0.0848391138
0.1364694931
0.0129870056
0.01021488247
0.006580644326
0.004953805971
0.004124807279
0.003820098508
0.003974909232
0.004600213796
0.00547547764
0.006520313818
0.007659452726
0.008859311257
0.01009330761
0.01133929525
0.01258057685
0.01380612551
0.01501005165
0.0161921066
0.01735912625
0.01852957289
0.01973889473
0.02103373707
0.02244996285
0.02399431519
0.0256806947
0.02759521919
0.02991950538
0.03277045325
0.03620906215
0.04035868393
0.04552659801
0.05185898749
0.05822033598
0.06241565473
0.06646327902
0.07024557769
0.07359483006
0.07653281348
0.07904050017
0.0810912183
0.0826878505
0.08391900881
0.08482428908
0.08546611595
0.08597222183
0.08641812131
0.08691822464
0.08779156429
0.08831997874
0.1400619442
0.01298706294
0.01021492311
0.006580699519
0.00495387419
0.004124896777
0.003820214541
0.003975456313
0.004601041032
0.005476177669
0.00652126691
0.007661167483
0.008862160473
0.01009765184
0.01134554552
0.01258929453
0.01381812058
0.01502659745
0.0162145484
0.0173881688
0.0185657285
0.01978287856
0.02108673999
0.02251347998
0.02407681311
0.0257942342
0.02773563783
0.03005469277
0.03288443318
0.0362739236
0.04023662937
0.04474249625
0.04979210531
0.0550235411
0.05975616713
0.0643529588
0.06864357334
0.07252297854
0.07591801274
0.0788063344
0.08119443449
0.08303939795
0.08446544828
0.08559272219
0.08642670541
0.08711249221
0.08772457621
0.08836146349
0.08934273043
0.08991275582
0.1416235369
0.01298712095
0.01021499825
0.006580764562
0.004953940473
0.004124981495
0.003820341324
0.003977127317
0.00460408627
0.005495421578
0.006547315704
0.00769429381
0.008901993215
0.01014392321
0.01139813751
0.01264819842
0.01388345097
0.01509870472
0.01629396867
0.01747582033
0.01866281724
0.01988994007
0.02120281754
0.02263737781
0.02420834975
0.02593916366
0.02788922781
0.03019995074
0.03300770403
0.03637945826
0.04029717312
0.0446708598
0.04942190219
0.0543608464
0.05919812222
0.06391018274
0.06831657478
0.07230712976
0.07580974468
0.07879539307
0.08127106978
0.08318679426
0.08461946258
0.08578132662
0.08669297048
0.08742317193
0.08808364632
0.088760298
0.08977756592
0.09045885732
0.1422363288
0.01298717902
0.01021509474
0.006580920201
0.004954196028
0.004125373393
0.003820884751
0.003978517972
0.004619418349
0.005529838126
0.006596665831
0.007759870236
0.008984658845
0.01024423093
0.0115163132
0.01278428918
0.01403763657
0.01527134405
0.01648518233
0.01768547947
0.0188912964
0.02013867687
0.02147211607
0.02292599988
0.02451376379
0.02625574153
0.02821598863
0.03052521076
0.03331465437
0.03665719991
0.04054187442
0.04487424768
0.04954987196
0.0544015119
0.05922552504
0.06392897789
0.06833617201
0.07233004733
0.07583834897
0.0788304907
0.08131346116
0.08323756974
0.08468045067
0.08582839485
0.08675887145
0.08750001264
0.08816645131
0.08884842997
0.08986808164
0.09068491759
0.1425389763
0.01298723636
0.0102156185
0.006581524947
0.004955163388
0.004126847417
0.003822925923
0.004001890716
0.004666228225
0.005596059481
0.006682896423
0.007865968375
0.009110167604
0.01038859974
0.01167898194
0.01296480686
0.01423553924
0.01548592565
0.01671562539
0.01793146313
0.0191530613
0.02041633984
0.02176522312
0.02323405441
0.02483690051
0.02658964272
0.02855767559
0.0308667767
0.03364590309
0.03696279314
0.04081060876
0.0451093997
0.04975434189
0.05458397515
0.05939429829
0.06406673126
0.06844360831
0.07240444616
0.0758832088
0.07885221376
0.08131738773
0.0832285899
0.08466367031
0.08580809702
0.08673421587
0.08747437873
0.08813884376
0.08882205322
0.08984383155
0.09074600651
0.1426478247
0.01298730142
0.01021817164
0.006584344999
0.004959513438
0.004133280448
0.003848722759
0.004058415861
0.004749836553
0.005712089089
0.00683236445
0.008050812356
0.009330669775
0.01064479124
0.01197047617
0.01329076661
0.01459493321
0.01587775706
0.01713868734
0.01838398164
0.01963303817
0.02092210364
0.02229525376
0.02378533601
0.02540429178
0.02716539085
0.02913278908
0.03143045001
0.03418517201
0.03747208572
0.04128449928
0.04554428595
0.05014583269
0.05492940523
0.05969416161
0.06429635074
0.06861189173
0.07251853026
0.0759533253
0.07889096789
0.08133344236
0.08327192148
0.08476695433
0.08594368115
0.08686058721
0.08757350672
0.08820093102
0.08889239715
0.08988026283
0.09088536444
0.1428233313
0.0129874082
0.0102315253
0.006596766916
0.004975871435
0.004189572588
0.003937614353
0.004196904071
0.004936781843
0.005945782263
0.007110521077
0.008370104593
0.009689179625
0.01103841758
0.01239627622
0.013744707
0.01507313781
0.01637660007
0.01765447931
0.01891370384
0.02017478647
0.02147375771
0.02285414723
0.02434792573
0.02596487856
0.02771891873
0.02966936074
0.03194287919
0.03466812214
0.03793039127
0.04172792008
0.04598390014
0.05057530923
0.05533585999
0.06005144503
0.06460293351
0.06886786378
0.07271061418
0.07609536162
0.07900216556
0.08143028564
0.08340764295
0.08497482193
0.08620057663
0.08716952884
0.08794210514
0.08856230783
0.0892712313
0.09013221226
0.09117767058
0.1430435147
0.01298881494
0.01028658371
0.006646050991
0.00505908065
0.004323169607
0.004104447609
0.004497254851
0.005350162039
0.006465201784
0.007732696522
0.0090915539
0.01050210186
0.0119344151
0.01336292488
0.014771677
0.01614903446
0.01749081551
0.01879888526
0.02008194714
0.02135765767
0.02266005521
0.02403219841
0.02550491515
0.02708303164
0.02877742492
0.03064571312
0.0328205456
0.03543924731
0.03858639557
0.04227258241
0.04643127999
0.05093696232
0.05562571664
0.06024087696
0.06469140156
0.06886977068
0.07256815254
0.0758558414
0.07871690772
0.081131284
0.0831167052
0.08479444471
0.08616491098
0.08727013769
0.08816269245
0.08886193983
0.08956997262
0.09027411408
0.09133134461
0.1429463382
0.01300695802
0.01050253696
0.007004056653
0.005418954573
0.004708800735
0.004694833616
0.005308838978
0.006300865331
0.007515450818
0.00886358012
0.01028802841
0.0117477581
0.01321185029
0.01465782599
0.01607058956
0.01744197555
0.01876758783
0.02004860742
0.02129458646
0.02253201388
0.02380032008
0.02514068932
0.02657639308
0.02810924907
0.02974389891
0.03154252049
0.03363968493
0.03618292585
0.03926134987
0.04288714548
0.04699696779
0.05146655438
0.05613199415
0.06076375547
0.06512951041
0.06927513114
0.07278556754
0.07595593871
0.07873991399
0.08112675129
0.08321424664
0.08510658508
0.08671476653
0.08805940231
0.0891894019
0.09010993237
0.09101071848
0.09167645979
0.09231793386
0.1434644281
0.01309531571
0.009722218298
0.007202550546
0.006111825287
0.005903651658
0.006316010179
0.007183958515
0.00838788992
0.00983413852
0.0114437872
0.01314856876
0.01489481536
0.0166463841
0.01837930353
0.02007386065
0.02171070885
0.02327458596
0.02476374975
0.02619718986
0.02761398794
0.02905894485
0.03057189896
0.03216137477
0.03377767258
0.03536984692
0.03699795654
0.03883607208
0.04108403489
0.04386585724
0.04721429255
0.05107628714
0.05534668592
0.05988833318
0.06446376928
0.06876641692
0.07288184153
0.07639408388
0.07956354121
0.08236441063
0.08478358981
0.08704819236
0.08911431955
0.09087533178
0.09234861176
0.09358417296
0.09460417514
0.0955174778
0.09594788185
0.09724005913
0.1487235851
0.0136156987
0.008933453211
0.007385485145
0.007157445764
0.007792104451
0.009076369606
0.01084339889
0.0129493267
0.01527155966
0.0177130357
0.02019428326
0.02265363503
0.02505204838
0.02737030562
0.02959847446
0.03172473456
0.03373478038
0.03562388156
0.03742063953
0.03919049118
0.04101145632
0.04295010807
0.04502436277
0.04715398238
0.04922603445
0.05127209807
0.05350348926
0.05619371909
0.05943846948
0.06324141029
0.06760803332
0.0728814969
0.0790336376
0.08517805042
0.08906969629
0.092437781
0.09540890211
0.09797260383
0.1001678073
0.1020023397
0.1037597813
0.1052800519
0.1065129573
0.1074783987
0.1082230869
0.10877274
0.1092326423
0.1093847454
0.1111149241
0.1701677466
0.01307037522
0.007639181803
0.00513127166
0.004187109681
0.00403434794
0.0044019159
0.005147281426
0.006180998539
0.007433078812
0.00884511725
0.0103676568
0.01195833576
0.01358117783
0.01520750777
0.01681613234
0.01839152037
0.01992148338
0.02139869203
0.02282956912
0.02424037383
0.02567399087
0.02717016277
0.02874686619
0.03037620511
0.03201466089
0.03368896323
0.03557294902
0.03785442042
0.04075303054
0.04450999873
0.04965911234
0.05675382138
0.06598472494
0.07566508932
0.07895166514
0.08084064197
0.08254948367
0.08385010713
0.08492488115
0.08571395415
0.08625857236
0.08659228567
0.08674669898
0.08675979856
0.08667044797
0.08651984633
0.08635398137
0.08649900413
0.08716467034
0.1382419329
0.01226608049
0.007195075486
0.004661793256
0.003202015421
0.002346051008
0.001807973667
0.001450767593
0.001204002189
0.001028810132
0.0009023547542
0.0008104865422
0.0007440320054
0.0006968624624
0.0006649359768
0.0006459198406
0.0006393803971
0.0006476798145
0.0006780191999
0.0007453125488
0.0008753791823
0.001108088492
0.00149815263
0.002114608671
0.003036532434
0.004349071858
0.006141439939
0.00849416258
0.01145830421
0.01503824905
0.01919309261
0.0238343391
0.02885759131
0.03411895985
0.03940643139
0.04437384163
0.04901557804
0.05322845389
0.05693523159
0.06011940377
0.06277531614
0.06493173237
0.06663578783
0.06794662097
0.06892902761
0.06964707283
0.07015906915
0.07051281383
0.07168512402
0.07157834229
0.07659705869
0.01212328326
0.007184776642
0.004667307949
0.003212317115
0.002354590466
0.001811910621
0.00144863006
0.001194486866
0.001010490349
0.0008737429343
0.0007701477061
0.0006906741633
0.0006293959465
0.0005825198941
0.0005480113284
0.0005258852843
0.000519103367
0.0005356163515
0.0005908365878
0.0007111581246
0.0009367247257
0.001323324331
0.001941937666
0.002875420017
0.004212851403
0.006040455772
0.008429223266
0.01142127467
0.0150200837
0.01918201475
0.02381553755
0.02878738612
0.03393547506
0.03908447186
0.04406538423
0.04872301494
0.05295835783
0.05669976684
0.05992549739
0.06262663797
0.06482426351
0.06656593138
0.06791166729
0.06892716933
0.06967617334
0.07021841008
0.07060469687
0.07211529714
0.07201707298
0.07459830916
0.01213152758
0.007235542932
0.004716255602
0.003221078635
0.002360754892
0.001814526639
0.001449141059
0.001193724107
0.001009003018
0.0008719184291
0.0007682614783
0.0006889521387
0.0006280334758
0.0005816370863
0.0005476835413
0.0005261539105
0.0005200717998
0.0005372811348
0.000593168029
0.0007139442461
0.0009398336327
0.001326837393
0.001946232678
0.002881265521
0.004221113628
0.006052269976
0.008446019898
0.01144504613
0.01505197544
0.01922248731
0.02386327581
0.02883751422
0.03399016745
0.03914273371
0.04412558653
0.04879789553
0.053045291
0.05679896561
0.06001732204
0.06270528191
0.06489193416
0.06662324165
0.06795916744
0.06896500334
0.06970534501
0.07023963798
0.07084195238
0.07341826221
0.07313051551
0.0754766494
0.01216893121
0.007321271168
0.004718669334
0.003204729147
0.002351240275
0.001807616528
0.001443185269
0.001188237918
0.001003507007
0.0008659818878
0.0007614920566
0.0006810004221
0.0006185822239
0.0005704304984
0.0005345149853
0.000510881014
0.0005026387129
0.000517772839
0.0005719020085
0.0006915960261
0.0009174698267
0.001305972702
0.00192876926
0.002869469064
0.004217553408
0.00605905513
0.008464295885
0.0114745676
0.01509096645
0.01926880626
0.02391626235
0.02889932496
0.03405729713
0.03921444462
0.04420104211
0.04887849921
0.05313329986
0.05689046391
0.06010564664
0.0627827992
0.06494992839
0.06666635369
0.06798947312
0.06898420749
0.06971664931
0.07049157901
0.07122534681
0.07370587989
0.07336309173
0.07563760454
0.01216895765
0.007320530292
0.004718865675
0.003203426628
0.0023504677
0.001804192791
0.001440266472
0.001185655668
0.001001116484
0.0008637002175
0.0007592909526
0.0006788644302
0.0006165163591
0.0005684415412
0.0005326134985
0.0005090897746
0.0005010115075
0.0005164278051
0.0005710300257
0.0006915199923
0.0009187502692
0.001309505563
0.001935881131
0.002881748461
0.004236604204
0.006086207747
0.008500707223
0.01152108593
0.01511048092
0.01929332512
0.02402081719
0.02902958445
0.03417721047
0.03931953835
0.04429350838
0.04895996039
0.05320410337
0.05694995708
0.06015456823
0.06282187467
0.06498465849
0.06668905576
0.06800017226
0.06900290511
0.06982278969
0.07079723247
0.07144482736
0.07382373544
0.07345984553
0.07567815619
0.01216890955
0.007320288841
0.004718894365
0.00320319454
0.002350168947
0.00180118539
0.001436370103
0.001182306556
0.000998061596
0.0008607201583
0.0007561850697
0.0006754674247
0.0006126802235
0.0005640314672