/*--------------------------------*- C++ -*----------------------------------*\
| =========                 |                                                 |
| \\      /  F ield         | OpenFOAM: The Open Source CFD Toolbox           |
|  \\    /   O peration     | Version:  2.2.1                                 |
|   \\  /    A nd           | Web:      www.OpenFOAM.org                      |
|    \\/     M anipulation  |                                                 |
\*---------------------------------------------------------------------------*/
FoamFile
{
    version     2.0;
    format      ascii;
    class       volScalarField;
    location    "4";
    object      nut;
}
// * * * * * * * * * * * * * * * * * * * * * * * * * * * * * * * * * * * * * //

dimensions      [0 2 -1 0 0 0 0];

internalField   nonuniform List<scalar> 
86889
(
0.0001421796512
0.0001448197147
0.0001846326075
0.0002644814067
0.0004024941334
0.0006076613368
0.0008683381258
0.001162116508
0.001469517988
0.001778893083
0.002084411334
0.002383412149
0.002675009857
0.002959245384
0.003236382863
0.00350643999
0.003769572118
0.004026971695
0.004281900379
0.004539623376
0.004806355958
0.005088082803
0.0053897719
0.005716572723
0.006078004233
0.006491350729
0.006978565206
0.007556496341
0.008233169844
0.009006143312
0.009854112692
0.01071013609
0.01151373505
0.01227785741
0.01315923419
0.01401231683
0.01480862914
0.01553853547
0.01618449027
0.01673549855
0.01715426274
0.01746874083
0.01770282875
0.01787386716
0.01799583047
0.0180855479
0.01813829032
0.01823402901
0.0180230925
0.01547326794
0.0001394738011
0.0001692665562
0.0001772316133
0.0002083864197
0.000274051683
0.00038540363
0.0005444287432
0.0007411998929
0.0009606543194
0.001190082741
0.001421476482
0.001650816327
0.001876590436
0.002098326559
0.002315644374
0.002528048387
0.00273543716
0.002938804566
0.003140912075
0.003346043247
0.003559488735
0.003786624894
0.004032439439
0.004302599794
0.004608153859
0.004969827166
0.005415601584
0.005972882014
0.006662114052
0.007490753777
0.008453345325
0.009526739286
0.01067189991
0.01185422957
0.01305474397
0.01421404588
0.01534751786
0.01644051853
0.01743382389
0.01829979865
0.0189811889
0.01949096979
0.01987900339
0.02017079415
0.02038819467
0.02055508444
0.02066956663
0.02085351783
0.0206499711
0.01638351124
0.0001388967467
0.0001924378149
0.0001708948421
0.0001737604604
0.0001975345043
0.0002582126179
0.0003735799847
0.0005317288601
0.0007145626295
0.0009082984487
0.001105048024
0.001300879297
0.001493940819
0.001683413677
0.001869030328
0.002050878879
0.002229430948
0.002405807123
0.002582210188
0.002762346935
0.002951528713
0.00315620999
0.00338399283
0.003644651513
0.003952772763
0.004329880039
0.004802337562
0.005395367353
0.006126766971
0.007002640702
0.008014712782
0.009140762322
0.01034497925
0.01159684428
0.01286666123
0.01409580063
0.01530794174
0.01646568514
0.01751511652
0.01843099165
0.0191871777
0.01975976001
0.0201990423
0.0205316001
0.02077950409
0.02097073634
0.02107892417
0.02126352945
0.02149699419
0.01617121133
0.0001387576831
0.0001858749608
0.0001597087531
0.0001592210546
0.0001774334453
0.000218235594
0.0003092952411
0.0004525768787
0.0006293550229
0.0008228706177
0.001023028112
0.00122464289
0.001425130421
0.001623103652
0.00181796456
0.002009662574
0.002198700335
0.00238624692
0.002574450487
0.00276690669
0.002969148164
0.003188477162
0.00343355433
0.003715207056
0.004049166634
0.004458621217
0.004972399963
0.005618611333
0.006418030003
0.007379311653
0.008496354014
0.009747280015
0.01109566122
0.01251527011
0.01394281185
0.01532969366
0.01666341933
0.01789310135
0.01897941337
0.01990906858
0.02068524658
0.02128521656
0.02174195961
0.02208053441
0.02232366241
0.02250410428
0.02257857419
0.02271957991
0.02274569777
0.0162555955
0.0001387562263
0.0001842278901
0.0001579882646
0.000155851691
0.0001706222007
0.0002074637463
0.0002851641319
0.0004169009183
0.0005852199181
0.0007731523547
0.0009697485761
0.001169282581
0.001368639341
0.001566280398
0.001761502123
0.001954211939
0.002144872577
0.002334627531
0.002525770562
0.002722351165
0.002930473622
0.003158088493
0.003414682404
0.003712158065
0.004067552989
0.0045054433
0.005056004828
0.005748446557
0.006604068899
0.007631998771
0.008826438765
0.01016384219
0.01160724204
0.01311745945
0.01463196479
0.01609366446
0.01746832632
0.0187166914
0.01981101955
0.02074035106
0.02150764562
0.02212635769
0.02261360364
0.02297537219
0.02323046539
0.02341522692
0.02347798722
0.02354888902
0.02350172749
0.01634375455
0.0001387546973
0.0001838300248
0.000157519699
0.0001551055277
0.0001677796832
0.0002017301658
0.0002740646954
0.000400278467
0.0005639709057
0.0007484979232
0.0009426354808
0.001140285757
0.001338237303
0.001534776256
0.001729123072
0.001921177435
0.002111433037
0.002301070988
0.002492395346
0.00268951687
0.002898739715
0.003128332409
0.003388179721
0.003690630376
0.00405329068
0.004501469249
0.005066170416
0.005777481438
0.006658486669
0.007717788166
0.008948963246
0.01033245891
0.01182908601
0.01339044633
0.01495588799
0.01646373026
0.01787147735
0.01914229405
0.02025293634
0.02119553905
0.02199329471
0.02264950643
0.02313458471
0.02350003159
0.02376966896
0.02395177357
0.0240495265
0.0240664773
0.02399815891
0.01638595228
0.0001387541016
0.0001837548625
0.0001574117678
0.0001549073735
0.0001674298872
0.0002001033712
0.0002695392815
0.0003924475958
0.0005523053727
0.0007330509306
0.0009235681615
0.001117748858
0.001312307161
0.001505502138
0.001696560386
0.001885381664
0.002072456634
0.00225901111
0.002447434127
0.002641925329
0.002848891985
0.003076738895
0.003335679658
0.003638547185
0.004003466202
0.004456411402
0.005028886789
0.005751216411
0.006645158346
0.007722180358
0.008973011029
0.01038080799
0.01190698337
0.01349885764
0.01508619763
0.01661362173
0.01803670571
0.01931930771
0.02043882907
0.02138883631
0.02221266977
0.02290658303
0.02340846382
0.02376547285
0.02402161878
0.0241875526
0.02427708314
0.02427284169
0.02424975841
0.01640886809
0.0001387536909
0.0001837402141
0.0001573880438
0.0001548616816
0.0001673467263
0.0001999672136
0.0002676854826
0.0003879833507
0.0005452430458
0.0007233408149
0.0009112183914
0.001102817458
0.001294864084
0.001485608303
0.001674261114
0.001860725602
0.002045514602
0.002229862438
0.0024161429
0.002608555977
0.002813578545
0.003039752964
0.003297404696
0.003599518871
0.003964644943
0.004419094687
0.00499468146
0.005720330195
0.006618411474
0.00770370528
0.008965755479
0.01038763217
0.01193117157
0.01354146318
0.01514121458
0.01667868646
0.01810894879
0.01939717514
0.02052254173
0.02147851268
0.02230769434
0.02300612075
0.02352535778
0.02387922238
0.02413047689
0.02429025462
0.0243726577
0.02436104785
0.02436185472
0.0164228413
0.0001387532747
0.0001837390385
0.0001573845369
0.0001548538449
0.0001673313064
0.0001999409921
0.000267562504
0.0003864972104
0.0005414819293
0.0007175824303
0.0009033267106
0.00109272786
0.001282540315
0.00147103572
0.001657436489
0.001841638686
0.002024151093
0.002206234926
0.002390292941
0.002580521622
0.002783399193
0.003007589999
0.003263547694
0.003564755791
0.003930309085
0.004386806536
0.004966334303
0.005696146382
0.006601979274
0.007696642014
0.008970038993
0.01040426077
0.01196136371
0.01358074879
0.01518788744
0.01673236189
0.01816873048
0.01946321273
0.02059496696
0.02155702259
0.02239193902
0.02309544556
0.02360480809
0.02396480946
0.02421281855
0.02436812565
0.02444558903
0.02442951686
0.02455528567
0.01643018801
0.0001387528725
0.0001837374436
0.0001573827691
0.0001548515044
0.0001673275041
0.0001999339277
0.0002674127306
0.0003861791266
0.0005393226182
0.0007144597654
0.0008992096275
0.001087651443
0.001276534147
0.001464119829
0.001649625494
0.001832944004
0.002014575359
0.002195776116
0.00237893661
0.002568256558
0.002770266416
0.002993951593
0.003249896876
0.003551533268
0.003918536921
0.004377969407
0.004961875131
0.005698518447
0.00661036692
0.00771231406
0.008994729879
0.01044027637
0.01200907217
0.01363419599
0.01524575144
0.01679334059
0.01822979527
0.01952397115
0.02065711665
0.02162215491
0.02245621755
0.02312970201
0.02362767806
0.02400365396
0.02424881149
0.02440183204
0.02447606966
0.02445672409
0.02457463353
0.01644239959
0.0001387524649
0.0001837378579
0.0001573828225
0.0001548514099
0.0001673270071
0.0001999329999
0.0002673815272
0.0003861271718
0.0005392929832
0.0007144222689
0.0008991243889
0.001087494999
0.001276285969
0.001463756118
0.001649112359
0.001832233264
0.00201359639
0.002194459733
0.002377252771
0.002566249608
0.002768139651
0.002992080299
0.003248784435
0.003551143556
0.00391948485
0.004382574549
0.00497295899
0.005719060545
0.006641162955
0.00775341383
0.009044270357
0.01049381947
0.01206130572
0.01368014163
0.0152853053
0.01683321013
0.01828417297
0.01958759876
0.0207173805
0.02168099008
0.02248985235
0.02313000133
0.02362906294
0.02400688975
0.02425014601
0.02440333342
0.02447867697
0.02446150526
0.02476873101
0.0164454685
0.0001387521066
0.0001837372358
0.0001573821377
0.0001548506825
0.0001673257763
0.0001999307563
0.0002673023214
0.0003859684007
0.0005391004036
0.0007141876213
0.0008988620397
0.001087224354
0.001276021619
0.001463500142
0.00164885374
0.00183194519
0.002013206055
0.002193903776
0.002376562396
0.002565713964
0.002767995624
0.002992263966
0.003249333302
0.003552397666
0.003921979458
0.004389864017
0.004988789
0.005746460583
0.006683944921
0.007810184573
0.009114076861
0.0105722316
0.01212889984
0.01372548195
0.01531541049
0.01686553711
0.01832357949
0.01969136126
0.02082006089
0.02176958014
0.0225454407
0.02316777775
0.02364911133
0.02400981098
0.02424500844
0.02439104276
0.02445901921
0.02443475022
0.02451572755
0.01647165346
0.0001387517653
0.0001837378634
0.0001573824976
0.0001548510577
0.0001673259912
0.0001999309621
0.0002672781499
0.0003859165011
0.0005390706976
0.0007141655676
0.0008988276354
0.001087161498
0.001275921371
0.001463331467
0.001648575559
0.00183149559
0.002012502506
0.002192922478
0.002375510256
0.002564848179
0.002766968006
0.002990852143
0.003247044508
0.003550407743
0.003923363533
0.004398040973
0.005008887164
0.005781756068
0.006731173107
0.007859384807
0.009155700098
0.0105951533
0.01212875091
0.01369100961
0.01521939213
0.01697611944
0.01859921222
0.02004424568
0.0212843492
0.02225150793
0.02303047788
0.02364728638
0.02412061463
0.02447155225
0.02468286262
0.02480146531
0.02484336548
0.02479430362
0.02516347777
0.0165359152
0.0001387514787
0.000183737124
0.0001573817991
0.0001548503325
0.0001673252131
0.0001999295935
0.0002672391038
0.0003858475083
0.000539008701
0.00071408399
0.000898725565
0.001087043903
0.001275786692
0.001463172239
0.001648373616
0.001831170682
0.00201200762
0.002192287719
0.002375158613
0.002564686351
0.002766479595
0.002989350525
0.003244591751
0.003547361936
0.003925598846
0.00441019959
0.005028005482
0.005806560797
0.006765769404
0.007907744004
0.009217238279
0.01065264512
0.01213210675
0.01366766751
0.01517417486
0.01665397569
0.01809447175
0.01934181204
0.02044536036
0.0213731538
0.02211952015
0.02269972812
0.02313487515
0.0234461977
0.02365700939
0.02378024877
0.02382970879
0.02379576492
0.02350590701
0.01610889922
0.0001387512359
0.0001837367982
0.0001573814437
0.0001548499437
0.0001673249617
0.0001999290832
0.0002672223533
0.0003858288981
0.0005390235593
0.0007140995997
0.0008987304469
0.00108702444
0.001275733223
0.001463073914
0.001648192223
0.001830804195
0.002011379662
0.002191236151
0.002373939201
0.002563085694
0.002764124348
0.002985914615
0.003239164136
0.003542965556
0.003925695373
0.004416075628
0.005042225488
0.005816650969
0.006778095641
0.007887732408
0.009160774693
0.01055724828
0.01200287213
0.01355089175
0.01518868399
0.01653899193
0.01669786727
0.01463190117
0.01507973948
0.01575487314
0.0163389624
0.01668103771
0.01694010091
0.01717247754
0.01739694899
0.01756572272
0.01768551516
0.01777888491
0.0170255039
0.01418685489
0.000138751061
0.0001837363615
0.0001573810309
0.0001548494926
0.0001673245858
0.0001999283432
0.0002672045606
0.0003858133733
0.0005390257487
0.0007141217134
0.0008987416067
0.001087021937
0.001275713913
0.001463025259
0.00164808427
0.001830570633
0.002010890321
0.002190274222
0.002372333234
0.002560559989
0.002760259296
0.002980694339
0.003232204866
0.003538703623
0.003926026339
0.004418984078
0.005043827629
0.005730895565
0.006700316575
0.007823678702
0.009189785488
0.01065764321
0.01216936829
0.01374706525
0.01528666087
0.01674088153
0.0181399596
0.01931361027
0.02014747757
0.02087255396
0.0215616369
0.02211231703
0.02250197061
0.02275777224
0.02294485995
0.02304368434
0.02306928569
0.02301789389
0.02236052603
0.01593852525
0.0001387509495
0.0001837362325
0.0001573808846
0.000154849338
0.0001673244843
0.0001999281671
0.0002671979296
0.0003858201624
0.0005390458756
0.0007142119044
0.0008988467335
0.001087121877
0.001275797048
0.001463073527
0.001648070567
0.001830440669
0.002010574465
0.00218955247
0.002370977611
0.002558246686
0.002756528437
0.002975046134
0.003219209942
0.003524836613
0.003911306285
0.004422180471
0.005047157111
0.005801580261
0.006696274671
0.007599017758
0.008826069901
0.01003292168
0.01123128205
0.0126541998
0.01412107775
0.0155231753
0.01686400877
0.0180870149
0.0188544295
0.01942533471
0.01993398116
0.02042598096
0.02086877892
0.02120337983
0.0214498736
0.02162012536
0.02172896987
0.0217720444
0.02146235091
0.01556349871
0.0001387509124
0.0001837361795
0.0001573808264
0.0001548492644
0.0001673244428
0.0001999281004
0.0002671949867
0.000385819289
0.0005390416816
0.0007142398187
0.0008988845383
0.001087159333
0.001275830735
0.001463097418
0.001648081243
0.00183040595
0.002010502378
0.002189306656
0.002370225862
0.002556944163
0.002753938299
0.002970008888
0.003208096732
0.003513594556
0.003899100751
0.004393544787
0.005028781778
0.005850908696
0.006706581056
0.006572205285
0.007607381984
0.008723962311
0.009795705178
0.01081425858
0.01181464016
0.01276689224
0.01361187096
0.01447197707
0.01522995286
0.01572588349
0.01608260791
0.01638965914
0.01654219347
0.01659703413
0.01668385395
0.01672532174
0.01672633164
0.01676790178
0.01617741623
0.01406175751
0.0001387509457
0.000183736485
0.0001573810971
0.0001548495189
0.0001673246771
0.0001999284168
0.0002671975624
0.0003858123227
0.0005390378212
0.0007141789398
0.0008988073438
0.001087080387
0.001275754238
0.001463031243
0.001648029993
0.001830401459
0.002010530493
0.002189506277
0.002370925077
0.002558169669
0.002756458361
0.002974963038
0.003219463283
0.003525126046
0.003911459347
0.004422251705
0.005046976138
0.005800830932
0.006648913316
0.007353179185
0.008209817216
0.009230392008
0.0102310637
0.01109159429
0.01196303639
0.01258082706
0.01325620909
0.01397765355
0.01467309855
0.01528869528
0.01579372444
0.01618989999
0.01651012946
0.01677484995
0.01697674154
0.01713051038
0.01724603521
0.0173303228
0.01718184069
0.01398189455
0.0001387510536
0.0001837367666
0.0001573813924
0.0001548498301
0.0001673249367
0.0001999288492
0.0002672063657
0.0003858098624
0.0005390203431
0.0007141060972
0.000898727546
0.00108700981
0.001275702545
0.001463013552
0.00164807092
0.001830554314
0.002010870702
0.002190249927
0.002372310002
0.002560510687
0.002760202373
0.002980604211
0.003232064248
0.003538582229
0.003925636055
0.004418059926
0.005042551348
0.005728468944
0.006683566709
0.007353728364
0.00823102643
0.009531785029
0.01064827535
0.01091617764
0.01124851278
0.01134115903
0.01148157778
0.01172712883
0.01215257565
0.01262522702
0.01302414901
0.01338763875
0.01369062845
0.01392655108
0.01414237074
0.01431290281
0.01445274062
0.01457018192
0.01433235326
0.01277882127
0.0001387512289
0.0001837370861
0.0001573816719
0.0001548502017
0.0001673252737
0.0001999295879
0.0002672233701
0.0003858254969
0.0005390122213
0.0007140877518
0.0008987217253
0.001087017221
0.001275725997
0.001463065152
0.001648180997
0.001830790146
0.002011365504
0.002191224078
0.002373918167
0.002563040282
0.002764060714
0.00298581126
0.00323897864
0.003542717845
0.003925216775
0.004414650883
0.005040082728
0.005813284122
0.006658244553
0.007401299014
0.008445775189
0.009880984141
0.009876271675
0.1019353131
0.0970997164
0.07504257109
0.07179630725
0.05655524405
0.05173863206
0.05068512802
0.04941848522
0.04816550748
0.04717181214
0.04611698909
0.04505776407
0.04393570844
0.04271282123
0.04142265366
0.03682664049
0.02340708634
0.0001387514656
0.0001837375052
0.0001573821142
0.0001548507153
0.0001673256879
0.0001999304126
0.0002672427753
0.0003858515331
0.0005390092191
0.0007140909303
0.0008987369043
0.00108705689
0.001275800344
0.001463185605
0.001648384251
0.001831177368
0.002012004767
0.002192281113
0.002375147221
0.002564650923
0.002766412201
0.002989243275
0.003244371686
0.003547007038
0.003924655782
0.00440883471
0.005025791778
0.005802901435
0.0066679287
0.007446758798
0.008352604371
0.009642818995
0.01069521824
0.01105860716
0.01141945979
0.01196195791
0.01222889763
0.01256189944
0.01300145232
0.01343787913
0.01383407092
0.0141720866
0.01444983563
0.01467038797
0.01483579454
0.01495950404
0.01504219056
0.01515647539
0.01539213417
0.01343889727
0.0001387517519
0.0001837379496
0.0001573825712
0.000154851179
0.0001673262592
0.0001999314786
0.0002672799415
0.0003859229486
0.0005390719438
0.0007141688274
0.0008988318291
0.001087164916
0.001275921682
0.001463328362
0.001648567912
0.001831482287
0.002012480446
0.002192893776
0.002375475393
0.002564788338
0.002766885306
0.002990712717
0.003246861491
0.003549856625
0.00392321496
0.004397691774
0.005007474411
0.005775682893
0.006667671075
0.00755084833
0.008347779045
0.009307770835
0.01024256648
0.0110549097
0.01189063741
0.0127604426
0.01365341844
0.01454862558
0.01538506364
0.01608296252
0.01667007351
0.01715626166
0.01754985584
0.01786252959
0.01808771808
0.01825958108
0.01839355662
0.01849126792
0.01895718594
0.01451094363
0.0001387520846
0.0001837370999
0.0001573820589
0.0001548506924
0.000167326053
0.0001999314479
0.0002673089875
0.000385984199
0.0005391160371
0.0007142083469
0.000898886064
0.001087249952
0.001276047114
0.001463525658
0.001648878333
0.001831967988
0.002013223889
0.002193917738
0.002376563617
0.002565689022
0.002767938842
0.002992157308
0.003249239124
0.003552057429
0.0039231103
0.004391740106
0.004989540249
0.005745366784
0.00666426013
0.007684607618
0.008630813128
0.00948812472
0.01040143769
0.01161769773
0.01286749451
0.01410463348
0.01534398158
0.01652628949
0.01753376925
0.01839897192
0.01912263613
0.01972064463
0.0202024985
0.02058489343
0.02084200038
0.02102745382
0.02116096468
0.02123418327
0.02179231162
0.01540639427
0.0001387524436
0.0001837375994
0.0001573826166
0.0001548512806
0.0001673270585
0.0001999333365
0.0002673839737
0.0003861330799
0.0005392950352
0.0007144265105
0.0008991289897
0.001087496084
0.001276281135
0.001463744102
0.001649092231
0.001832203134
0.002013555103
0.002194405338
0.00237717789
0.002566143248
0.002767993475
0.002991893042
0.003248520946
0.003550833586
0.003919548344
0.004382864765
0.00497259603
0.005717726744
0.006635932129
0.007720471155
0.008886234094
0.01002638287
0.01120066328
0.01268058369
0.01416805261
0.01561113583
0.01698372016
0.01822967778
0.01931731881
0.02024831105
0.02103280508
0.02165677312
0.02214723623
0.02252373064
0.02277882471
0.02295358049
0.02306309312
0.02309536208
0.02340921968
0.01603092878
0.0001387528439
0.0001837371909
0.0001573825728
0.0001548514107
0.0001673276462
0.0001999344603
0.0002674217692
0.0003861978672
0.0005393415332
0.0007144847925
0.0008992394881
0.001087683743
0.00127656807
0.001464155369
0.001649662468
0.001832981498
0.002014612977
0.002195810381
0.002378959087
0.002568252669
0.002770220629
0.002993838526
0.003249657598
0.003551065095
0.00391771667
0.004376717234
0.004960037477
0.005695772048
0.0066061224
0.007702217775
0.008959892397
0.01032521977
0.01177313726
0.0133644723
0.01494913498
0.01647761773
0.01790244015
0.01918947496
0.02031706732
0.02127737784
0.02210770126
0.02277854797
0.02327529511
0.02365134298
0.0238983325
0.02405629939
0.02414019342
0.02413474614
0.0242969248
0.01634007889
0.0001387532454
0.000183738211
0.0001573838762
0.000154853367
0.0001673311119
0.0001999414123
0.0002675719454
0.0003865070189
0.0005414881032
0.0007175914337
0.0009033342697
0.001092727618
0.001282529233
0.00147101226
0.00165739908
0.001841586367
0.002024083476
0.002206148261
0.002390178577
0.002580368101
0.002783194154
0.003007315334
0.003263152925
0.003564150026
0.003929383419
0.004385454548
0.004964398963
0.00569331068
0.006598001093
0.007690736014
0.008960249909
0.01038093345
0.01191343401
0.0135248692
0.01512439446
0.01666188654
0.01809226945
0.01938178381
0.02050973917
0.0214689593
0.02230171255
0.02300336795
0.02351134202
0.02387019985
0.02412008716
0.02427815011
0.02435954774
0.02434882958
0.02441315767
0.01641417673
0.0001387536557
0.0001837391439
0.0001573871695
0.0001548609363
0.0001673461342
0.0001999666585
0.000267669597
0.0003879605316
0.0005452230729
0.0007233279048
0.000911209616
0.001102813403
0.001294865963
0.001485615657
0.001674273489
0.00186074396
0.002045539669
0.002229890281
0.002416162335
0.002608548589
0.002813523538
0.003039618011
0.003297118723
0.003598990055
0.003963762041
0.004417751747
0.004992764774
0.005717623265
0.006614631438
0.007698455884
0.008959136207
0.01037861336
0.01191893929
0.0135278366
0.0151269895
0.01666477724
0.01809597849
0.0193852919
0.02051161747
0.02146816198
0.02229735281
0.02299513328
0.02351329909
0.02386708655
0.02411825215
0.02427786042
0.02436028364
0.02434910236
0.02432800341
0.01642205039
0.0001387540652
0.000183753901
0.0001574109658
0.0001549066781
0.0001674293729
0.0002001027328
0.0002695532169
0.0003924891675
0.0005523695583
0.0007331738031
0.0009237018005
0.00111787127
0.001312416186
0.001505596946
0.001696637666
0.001885439011
0.002072491536
0.002259012367
0.002447384548
0.002641801486
0.002848675753
0.003076431776
0.003335235656
0.003637871154
0.004002478326
0.004455000002
0.005026917073
0.005748499624
0.006641360329
0.007717224948
0.00896677037
0.01037323773
0.01189788668
0.01348793641
0.01507341207
0.01659876249
0.01801986777
0.019300944
0.02041956994
0.02136915999
0.02219285878
0.02288670906
0.02340239834
0.02375939976
0.02401519972
0.02418090895
0.02427027286
0.02426643971
0.02421144849
0.01640920796
0.0001387546553
0.0001838280775
0.0001575179706
0.0001551036631
0.0001677767848
0.0002017264442
0.0002740422632
0.0004002351065
0.0005638972541
0.0007483568117
0.0009424863431
0.001140135017
0.001338094323
0.001534645557
0.001729009441
0.00192108369
0.002111352609
0.002300991995
0.00249230422
0.002689397705
0.002898588437
0.003128133937
0.003387876979
0.003690142862
0.004052503629
0.004500256043
0.005064333224
0.005774828664
0.006654663478
0.0077124635
0.008942285751
0.01032406966
0.01181875961
0.01337807069
0.01494207861
0.01644883538
0.01785588416
0.01912647285
0.0202373877
0.02118049999
0.02197871189
0.02263523018
0.02313439513
0.02350002658
0.02376958456
0.02395168502
0.02403790222
0.02405682101
0.02397328041
0.01638734944
0.0001387561941
0.0001842291721
0.0001579894823
0.0001558526502
0.0001706233797
0.0002074670751
0.0002852404203
0.0004170481663
0.0005854148699
0.0007733794164
0.0009699950054
0.001169558752
0.001368935122
0.001566629713
0.001761871154
0.001954583795
0.00214524487
0.002334994006
0.002526115677
0.002722662839
0.002930746376
0.003158314627
0.003414832554
0.003712153002
0.004067292234
0.00450476346
0.005054660227
0.005746268103
0.006600795806
0.007627330552
0.008820157988
0.01015596482
0.01159710554
0.01310464929
0.0146176386
0.0160779566
0.01745136943
0.01869883377
0.01979263919
0.02072170694
0.02148937101
0.02210857442
0.02259310413
0.02294973506
0.02319850189
0.0233782437
0.02343861814
0.02351360096
0.02345659095
0.01634349647
0.0001387698881
0.0001858853378
0.00015973259
0.0001592433369
0.0001774523215
0.0002182498782
0.0003092487282
0.0004524803957
0.0006292318555
0.0008227340586
0.001022888633
0.001224506837
0.001425006664
0.001622951876
0.001817819566
0.002009516075
0.00219854391
0.002386079202
0.002574277537
0.002766720056
0.002968938075
0.003188227976
0.003433237591
0.003714724496
0.004048468512
0.004457598694
0.004970884263
0.005616403932
0.006415001456
0.007375379111
0.008491272669
0.00974071242
0.01108744948
0.0125050752
0.01393142678
0.0153172756
0.0166501214
0.0178792687
0.01896540449
0.01989538183
0.02067209779
0.02127022136
0.02172440823
0.0220593353
0.0222978037
0.02247358587
0.02254913634
0.02269238355
0.02271111323
0.01625629029
0.0001389085659
0.0001924589147
0.0001709281751
0.0001737954846
0.0001975754366
0.0002584199545
0.0003739192771
0.0005321658914
0.0007150997131
0.0009089258243
0.001105753638
0.001301657771
0.001494785282
0.001684315065
0.001869972154
0.002051878371
0.002230497764
0.00240693999
0.002583367731
0.002763512678
0.002952662766
0.003157293825
0.003384953537
0.003645406516
0.003953215641
0.004329871183
0.004801730113
0.005393946902
0.006124323576
0.006998951833
0.008009676202
0.009134026623
0.01033677646
0.01158690624
0.0128555882
0.01408382848
0.01529556374
0.01645272943
0.01750209133
0.01841813954
0.01917241383
0.01974306771
0.02017996249
0.02051030726
0.02075491412
0.02094591644
0.02105026777
0.02122893497
0.02145214892
0.01617246729
0.0001394739054
0.0001692668416
0.0001772194986
0.0002081721105
0.0002736550923
0.0003849300235
0.000543877697
0.0007405588568
0.0009599316683
0.00118929468
0.00142063664
0.001649932835
0.001875656767
0.002097322954
0.00231456139
0.002526904231
0.002734238718
0.002937586588
0.003139645295
0.003344749847
0.003558089473
0.003785106269
0.004030803874
0.004300851978
0.004606292787
0.004967799855
0.005413283283
0.005970154149
0.0066584442
0.007486277767
0.008447610119
0.009519859805
0.01066377195
0.01184505675
0.01304478818
0.01420347872
0.01533646094
0.01642916864
0.01742256098
0.01828878974
0.0189690771
0.01947802243
0.01986447954
0.02015514914
0.02037016843
0.0205351512
0.02064464617
0.02082647564
0.02062542845
0.01638548889
0.0001421796081
0.0001448179872
0.0001846328035
0.0002645197028
0.0004026585495
0.0006079675739
0.0008687096301
0.001162492818
0.001469875948
0.001779217025
0.002084689437
0.00238363296
0.002675161726
0.00295931786
0.003236364088
0.003506330761
0.003769374939
0.004026676083
0.004281482109
0.004539084216
0.004805716941
0.00508733339
0.005388862692
0.005715429737
0.006076561489
0.006489649331
0.006976600362
0.007554210998
0.008230389375
0.009002672166
0.009850267281
0.01070633152
0.01150959015
0.01227339454
0.01315397464
0.01400674883
0.01480302405
0.01553310791
0.01617934584
0.01673076436
0.01714883043
0.01746285349
0.01769645765
0.01786712978
0.01798853526
0.01807789596
0.01813097102
0.01822615963
0.0180139237
0.01547657249
0.0001393167606
0.0001144854047
0.0001095915455
0.0001262303158
0.000171978755
0.0002584284031
0.0003924728168
0.0005701775832
0.0007789235381
0.001005278408
0.001239609973
0.0014762261
0.001712013003
0.001945395372
0.002175592688
0.002402275
0.002625472651
0.002845949686
0.003066022687
0.003290052106
0.003524188441
0.003775372372
0.004050758841
0.004358543589
0.004712580833
0.005137969097
0.005669832443
0.006345220366
0.007187573589
0.008184368443
0.009234380834
0.01019339398
0.01100656983
0.01177721115
0.01284032404
0.013949827
0.01500015055
0.01598848412
0.01688963312
0.01768782533
0.0183700719
0.01893335806
0.01938522286
0.01974032339
0.02001598406
0.02022930475
0.0203940642
0.02047837962
0.02048567259
0.01534568761
0.0001349700645
0.0001099818193
9.440274122e-05
8.360810105e-05
7.647716039e-05
7.165607288e-05
6.843390498e-05
6.644778119e-05
6.551426244e-05
6.553761694e-05
6.646162989e-05
6.824319252e-05
7.084550794e-05
7.425864273e-05
7.855924751e-05
8.405589438e-05
9.159910134e-05
0.0001032041221
0.0001231048158
0.0001594350805
0.000226781845
0.0003493840385
0.0005645859825
0.0009257874764
0.001504159392
0.002384274532
0.003653257219
0.005389175928
0.007656400583
0.01049109037
0.01389361391
0.01774455878
0.02181543391
0.02597521917
0.03084443084
0.03585587887
0.04079902903
0.04549553523
0.04973053122
0.05340719211
0.05646686485
0.05891444963
0.06080366147
0.0622063182
0.06321125278
0.06390129371
0.06441496111
0.0526043273
0.05328830208
0.03084654428
0.0001340100893
0.0001114253123
9.57028553e-05
8.475938109e-05
7.738935995e-05
7.22333839e-05
6.854438797e-05
6.590214357e-05
6.405952169e-05
6.286823746e-05
6.223872173e-05
6.211711426e-05
6.247913829e-05
6.334978605e-05
6.486046627e-05
6.740174155e-05
7.19322455e-05
8.062316867e-05
9.795281903e-05
0.0001326497987
0.0002005430306
0.0003279993831
0.0005547471944
0.0009352279794
0.001537867712
0.00244158413
0.003729657997
0.005482125212
0.007765158356
0.01062281202
0.01406917456
0.01808612097
0.02261969792
0.02758934587
0.03288836426
0.0384549083
0.04400253784
0.04936221469
0.05415849065
0.05827554302
0.06169364405
0.06440893538
0.06647071431
0.06794957072
0.06894853282
0.06954070342
0.0698236895
0.05561347622
0.05640694673
0.03955887313
0.0001340644074
0.0001117537816
9.617692846e-05
8.475820332e-05
7.738398367e-05
7.214077612e-05
6.838311588e-05
6.56865884e-05
6.380810406e-05
6.260348839e-05
6.1986066e-05
6.190762974e-05
6.234965172e-05
6.333584796e-05
6.499813982e-05
6.772913855e-05
7.250528317e-05
8.150560393e-05
9.925212546e-05
0.0001345546186
0.0002034509253
0.0003326536637
0.0005623650974
0.0009475797168
0.001557459516
0.002471891536
0.003775317013
0.005548715575
0.007860666474
0.01075834437
0.01426204981
0.01835715928
0.02300299803
0.02812540469
0.03364159837
0.03933914011
0.04501604857
0.05050259811
0.0556332202
0.06021155335
0.06410336578
0.06729922672
0.06982901816
0.07175336624
0.07315476166
0.0740788926
0.07087852659
0.04896141072
0.04976329143
0.03715595335
0.000134337533
0.0001125144541
9.623391566e-05
8.4504782e-05
7.716872956e-05
7.194671832e-05
6.816103548e-05
6.542445264e-05
6.347893913e-05
6.21715242e-05
6.140891507e-05
6.1139968e-05
6.134527202e-05
6.20543577e-05
6.340741561e-05
6.581197014e-05
7.027222154e-05
7.902856073e-05
9.674631956e-05
0.0001325490805
0.0002030410817
0.0003357299579
0.0005715942215
0.0009660652354