/*--------------------------------*- C++ -*----------------------------------*\
| =========                 |                                                 |
| \\      /  F ield         | OpenFOAM: The Open Source CFD Toolbox           |
|  \\    /   O peration     | Version:  2.2.1                                 |
|   \\  /    A nd           | Web:      www.OpenFOAM.org                      |
|    \\/     M anipulation  |                                                 |
\*---------------------------------------------------------------------------*/
FoamFile
{
    version     2.0;
    format      ascii;
    class       volScalarField;
    location    "4";
    object      p;
}
// * * * * * * * * * * * * * * * * * * * * * * * * * * * * * * * * * * * * * //

dimensions      [0 2 -2 0 0 0 0];

internalField   nonuniform List<scalar> 
86889
(
590.0015389
589.6576927
589.522111
589.3546128
589.0987157
588.8158672
588.5238302
588.2033807
587.8424701
587.4376726
586.9850371
586.4790928
585.9125953
585.2778669
584.5647329
583.7626543
582.8596524
581.841936
580.6949508
579.4008356
577.9380458
576.2817238
574.4008254
572.2622032
569.8243921
567.0514929
563.885762
560.2660524
556.1174082
551.339012
545.8003602
539.3694693
531.8895241
523.1834035
513.0927136
501.3565781
487.8009258
472.0647264
453.8422587
432.8176661
408.6471387
381.0081767
349.6311912
314.3405964
275.0887981
231.9915009
185.3784162
136.0336955
85.45271441
38.75479571
589.8504786
589.5921781
589.4129547
589.2156034
588.9901738
588.7381566
588.4619512
588.1555215
587.8104456
587.4211885
586.9834112
586.4918082
585.9393667
585.3186917
584.6201806
583.8330937
582.9459427
581.9446755
580.8145668
579.5393451
578.0955224
576.4615362
574.6053201
572.4953313
570.0928828
567.3564407
564.2382428
560.66836
556.5729699
551.8560933
546.3951314
540.0567784
532.692514
524.1144733
514.1514611
502.5505495
489.2350757
473.588496
455.5037766
434.6437851
410.6207716
383.0920747
351.7775584
316.484253
277.132231
233.8018063
186.7594396
136.6749221
85.33267158
38.05237139
589.8512487
589.6796309
589.5318944
589.3540634
589.1412744
588.8992414
588.6331587
588.331132
587.9855097
587.5952067
587.1583353
586.6697697
586.1230174
585.5108402
584.8234667
584.0518596
583.1834589
582.2055574
581.1031185
579.8569661
578.4498581
576.8553159
575.0478082
572.9919449
570.6546334
567.9946997
564.9665106
561.4994341
557.5260988
552.9496295
547.6583118
541.5103463
534.3653872
526.0337228
516.3328527
505.0282959
492.0125141
476.7378984
459.0056799
438.485911
414.7486655
387.450546
356.2703171
321.00017
281.4981679
237.8174091
190.2287929
139.9994146
86.91003739
39.35125155
589.8599102
589.6828991
589.5204075
589.3234443
589.1253289
588.9030008
588.6406493
588.3542222
588.0299592
587.6605213
587.2463427
586.7844288
586.2674844
585.6869585
585.0347334
584.299504
583.4713927
582.536222
581.4802581
580.2867074
578.9371801
577.4086447
575.6747515
573.7045855
571.4656174
568.9201768
566.0217272
562.7081857
558.910255
554.5410896
549.4872238
543.623594
536.7984376
528.8267061
519.5134524
508.6235728
495.9469433
481.1573571
463.9351799
443.8912513
420.5902128
393.6408997
362.6906431
327.4570187
287.7718377
243.7133024
195.7603526
144.8270569
89.63014273
40.61399186
589.9426064
589.7806191
589.6417022
589.4636453
589.2838456
589.0972628
588.8619075
588.5877149
588.2776072
587.9225588
587.5210673
587.0742884
586.5754491
586.0182342
585.3943305
584.6945852
583.9077541
583.0206305
582.0194984
580.8887619
579.6102966
578.1631635
576.5224636
574.6595525
572.5448381
570.1431705
567.4137818
564.2974072
560.7281349
556.6222881
551.875667
546.3647705
539.9355918
532.4093113
523.5902396
513.2518723
501.1503079
487.0130888
470.4589897
451.0479897
428.3322417
401.8503401
371.2077038
336.0472363
296.1443099
251.6770701
202.8548465
150.2011522
93.01360343
42.16917704
590.0360431
589.8708408
589.7300063
589.5482065
589.3650837
589.1833645
588.9708199
588.7097256
588.4177348
588.0904831
587.7188943
587.3081637
586.8508165
586.3381199
585.7624965
585.1156928
584.3877566
583.5665691
582.6387304
581.5895842
580.4019816
579.0564426
577.5305329
575.797692
573.8316531
571.601632
569.0708295
566.1887394
562.8902007
559.1002012
554.7246094
549.6303397
543.6594872
536.649267
528.403086
518.7434276
507.3753788
494.011194
478.2549609
459.6263216
437.6172141
411.7287188
381.4890448
346.4402447
306.2820818
261.1420602
210.9428702
156.5793708
97.08993385
43.97374
590.1770144
590.0199501
589.8921075
589.726814
589.5610658
589.3975031
589.2106642
588.9845284
588.7143469
588.400408
588.0571145
587.675522
587.2518619
586.7790861
586.2502933
585.6578222
584.9923683
584.2427845
583.3963499
582.4389643
581.3540808
580.1232988
578.7259251
577.1377362
575.3362773
573.2954217
570.9847594
568.3635525
565.3724199
561.9366104
557.9689732
553.3422949
547.8957648
541.4869281
533.9217462
525.0093738
514.4683061
501.9819086
487.1278368
469.3820347
448.1826569
422.9730163
393.2070684
358.3037743
317.8324755
271.7261388
220.079642
163.9514343
101.8088746
46.0994593
590.3306015
590.1731287
590.0474384
589.8844722
589.7241347
589.5675446
589.3948765
589.1896598
588.9451936
588.6666479
588.3578706
588.0173609
587.6403539
587.2204593
586.7512925
586.2259222
585.6358983
584.9709542
584.2190131
583.3665098
582.3980513
581.2961946
580.0412252
578.6117549
576.9862112
575.1489727
573.0732545
570.728089
568.0664677
565.0149285
561.4905409
557.3736166
552.5059902
546.7450107
539.8789706
531.7328665
522.0589088
510.5451672
496.7085373
479.9476297
459.6439381
435.184476
405.9316753
371.1911052
330.3908947
283.2806703
230.0152684
171.9944782
106.9230001
48.38121986
590.5171488
590.3654129
590.2496198
590.0994594
589.9567379
589.8150678
589.6582043
589.4841809
589.2723558
589.0265995
588.7497832
588.4467038
588.1147454
587.7476903
587.3394326
586.8838233
586.3733824
585.7986965
585.1483755
584.4090752
583.5656641
582.6005044
581.4951917
580.2305587
578.7844256
577.1499035
575.310366
573.2488184
570.9252896
568.2681761
565.2050481
561.6206946
557.3643885
552.3067195
546.2106723
538.9410726
530.2110398
519.686161
506.8640298
491.0999085
471.7138636
448.0189547
419.2898124
384.6972789
343.5851127
295.5104631
240.5799179
180.5610698
112.4187272
50.8790071
590.7158578
590.5652998
590.4520961
590.3083473
590.1701091
590.0461577
589.9104721
589.7569689
589.5724883
589.3645004
589.1264385
588.8670202
588.5865463
588.2792764
587.9393903
587.5615564
587.1392957
586.6640048
586.1249118
585.5085085
584.8000134
583.9812444
583.031653
581.9346235
580.6696472
579.2286053
577.6177631
575.8302841
573.8445696
571.6036505
569.0307444
565.9943393
562.3294721
557.8869028
552.5110801
546.0258096
538.23658
528.8293052
517.1559908
502.4543835
484.0092264
461.0780935
432.8355951
398.3637445
356.8720332
307.8158768
251.1944692
189.0454874
117.8219774
53.31231361
590.9374131
590.7913567
590.6888867
590.5544063
590.4317984
590.3237344
590.2089662
590.0798063
589.9242835
589.7509988
589.5523159
589.3377149
589.1092423
588.8624518
588.5924727
588.2949795
587.964539
587.5933942
587.1716063
586.6860383
586.1208273
585.4560317
584.665585
583.7321884
582.6398046
581.3815779
579.9679964
578.4111643
576.7208656
574.8784182
572.8002154
570.3576244
567.3834028
563.7240734
559.1828183
553.4993589
546.5458994
538.0306161
527.3876505
513.7274652
496.1923176
473.9898849
446.1863866
411.7959743
369.9044087
319.9166397
261.7007468
197.4691318
123.2296685
55.80129638
591.1644759
591.0211137
590.9237202
590.7988087
590.6890701
590.596437
590.5013124
590.3960215
590.2687919
590.1299002
589.9715238
589.8036401
589.6294367
589.445681
589.2486499
589.0351753
588.8010661
588.5394327
588.2423253
587.8967744
587.4818673
586.9752971
586.3487988
585.5757791
584.6423516
583.5497699
582.3199949
580.9860698
579.599663
578.1520908
576.5408342
574.5928403
572.1162266
568.9272811
564.9206407
559.9332482
554.1494639
547.020867
537.5288438
524.8387197
508.1841925
486.6200847
459.158291
424.7168811
382.3162673
331.2986657
271.4636361
205.1203745
128.0896536
58.00851159
591.4075401
591.2673159
591.1762093
591.061028
590.9645938
590.888572
590.8137365
590.7331293
590.6344225
590.5297331
590.4113004
590.2896215
590.1691057
590.0478602
589.9235034
589.7943389
589.6574799
589.5083871
589.3419767
589.1402821
588.8802926
588.5387598
588.0839224
587.46955
586.663556
585.671569
584.5157985
583.2906699
582.1278448
581.089708
580.0567742
578.8181313
577.1731556
574.8402535
571.527714
566.9312035
561.4993669
555.0596888
546.7465533
535.2321404
519.4752245
498.5403768
471.3833371
436.9134952
394.0363766
342.0619825
280.7398361
212.4192045
132.7688496
60.1654676
591.6535883
591.5161101
591.4305067
591.3242793
591.2397782
591.1791936
591.1232936
591.0657711
590.9947177
590.9228998
590.842775
590.7658681
590.6976857
590.6375474
590.5844358
590.5383788
590.4977134
590.4627193
590.4284084
590.3731168
590.2740207
590.1073936
589.8334723
589.3937131
588.7449053
587.8792026
586.8371716
585.7170729
584.7425404
583.9933281
583.2733399
582.3932066
581.0768043
579.1226924
576.1748192
571.9636383
568.6082193
563.7429139
556.1776695
545.422519
530.4495928
510.0162462
483.0305789
448.3860059
404.9111689
351.8899692
289.0732439
218.8617803
136.8760468
62.0412487
591.9052558
591.7706571
591.6906518
591.5933623
591.5201072
591.4748465
591.43735
591.4018034
591.3573336
591.3169479
591.2731495
591.2385479
591.2197974
591.2174217
591.2318285
591.264991
591.3168826
591.392268
591.4855445
591.5757103
591.6424921
591.649054
591.5401305
591.2355132
590.6611452
589.7554884
588.531529
587.2583364
586.5926176
586.4702921
586.5499019
586.4468588
585.9842078
585.0097444
582.3270651
576.4060724
573.3729576
570.2173375
564.0771586
554.4724402
540.3306013
520.4108696
493.731503
459.0554077
415.1797311
361.2727367
297.0903674
225.1371251
140.9151237
63.96499676
592.1566935
592.024516
591.9494295
591.8600514
591.7978937
591.7659567
591.7452483
591.729848
591.7097666
591.6980445
591.6875881
591.6915298
591.7176283
591.7675907
591.8431753
591.9480585
592.0846687
592.2599584
592.4712984
592.7046894
592.9442603
593.1463564
593.2608611
593.2083286
592.8750475
592.1371969
590.9174449
589.3997409
588.5699176
588.4466544
588.6670263
588.7950539
588.5558888
587.6605182
585.7503783
582.5440851
580.5026953
577.6220374
572.1883156
563.2875948
549.7134461
530.2719565
503.7484787
468.9166319
424.5959806
369.803318
304.3373596
230.6982378
144.4722037
65.58326912
592.4069665
592.2771697
592.2067976
592.1247043
592.0723903
592.0528699
592.0475748
592.0504314
592.0522209
592.0658911
592.0854757
592.1236147
592.1889812
592.2844723
592.4129417
592.5794547
592.7876422
593.0482694
593.3546755
593.7009371
594.0625823
594.4015099
594.6413287
594.7100982
594.4857445
593.6946588
592.0372942
590.0463253
590.172102
591.5313171
591.9991987
592.0780778
591.9572677
591.4379674
590.2055393
587.7948429
585.3922188
582.7147736
578.4460153
570.6464403
557.8366745
538.9504888
512.7719561
478.0586387
433.5508283
378.1682096
311.6235778
236.4870249
148.1491474
67.27437652
592.6527887
592.5249615
592.4587909
592.3831475
592.3394079
592.3307282
592.3386503
592.357397
592.378099
592.4135443
592.458486
592.525424
592.6234555
592.7561438
592.9269543
593.1420556
593.4056197
593.7337377
594.1182895
594.565827
595.0590754
595.576472
596.052577
596.4116645
596.5739587
595.9541031
594.315666
591.0094466
591.6258994
592.234178
593.5457931
594.3857817
594.5490332
594.2545369
593.4062795
591.7114806
590.1057942
588.1378871
584.5604385
577.4540001
565.1767239
546.7446064
520.7404784
486.1334719
441.4980105
385.6115613
318.129307
241.5915776
151.4846871
68.8379099
592.8923271
592.7662345
592.7038505
592.6337668
592.5975113
592.5983109
592.6177902
592.6502298
592.6866194
592.7402624
592.8052848
592.8951265
593.0188691
593.179925
593.3818686
593.6306056
593.930776
594.2940049
594.7158272
595.1909822
595.6973601
596.198437
596.6202879
596.8964631
596.9160625
596.3924891
595.0354624
593.4032866
593.8879954
595.6330262
596.5179178
597.0686876
597.3913035
597.6017406
596.9690562
595.4029077
594.1201274
592.337418
588.867532
582.1734298
570.4445139
552.5664563
527.1844232
493.0056224
448.5337347
392.4992973
324.3801055
246.6317549
154.8506735
70.34737149
593.1237083
592.9990311
592.9397273
592.8741972
592.8440791
592.8526237
592.8814099
592.9249489
592.9736302
593.0412273
593.1213919
593.2281881
593.3703023
593.5505859
593.7721798
594.0403891
594.3595235
594.7385841
595.1779424
595.6664163
596.191411
596.7135418
597.1866733
597.5379725
597.6603872
597.4414689
596.8414851
595.9820556
595.9162066
596.6261449
597.6431199
598.8649136
599.2093114
600.114543
599.3413305
597.2150313
597.1260727
595.8108714
592.3411863
585.6638749
574.2216243
556.7333697
531.7817189
497.913501
453.598826
397.5260155
329.0216166
250.36003
157.4198096
71.49194665
593.3454651
593.221968
593.1653592
593.1033116
593.0783965
593.0932014
593.1293973
593.1815978
593.2395224
593.3171307
593.4082915
593.5266722
593.6803669
593.8716412
594.102907
594.3784665
594.7009905
595.0785868
595.5094082
595.976474
596.4646786
596.9420055
597.3607435
597.648228
597.7383545
597.5811041
597.1952875
596.8606829
597.2403975
598.3037938
599.494874
600.933261
600.9581779
602.5625073
601.8769041
597.6054619
598.1695465
597.4956137
593.8280767
587.0215195
575.7567479
558.5907903
534.0848852
500.6730286
456.727593
400.880534
332.297286
253.1305759
159.4009159
72.36404587
593.5561751
593.4333578
593.3786158
593.3190337
593.2977577
593.3168498
593.3582359
593.4163196
593.4802264
593.5639272
593.6616003
593.7861339
593.9449419
594.1395999
594.3716551
594.6440951
594.9587167
595.3197896
595.7273389
596.164269
596.6135542
597.0589196
597.4681222
597.7913296
597.9994898
598.0837462
598.1013152
598.1734008
598.5306527
599.2526577
600.089027
601.0051199
601.2753643
601.8477592
601.7422093
599.6541985
599.1443052
597.4828891
593.3936591
586.2298179
574.8195433
557.6935723
533.3409198
500.1691072
456.5184976
400.9482665
332.5683567
253.4473171
159.6524733
72.47479688
593.7554433
593.6333644
593.5803057
593.5227698
593.504485
593.5268153
593.5719003
593.633659
593.7015077
593.788534
593.8890736
594.0154053
594.174224
594.3663042
594.5923184
594.854073
595.1527104
595.4884584
595.8614447
596.2597549
596.6670162
597.0676488
597.4386707
597.748242
597.970935
598.1066948
598.2069335
598.3822135
598.7659791
599.4242515
600.2102883
600.9482354
601.372598
601.5468884
601.0354573
599.5260008
598.0190926
595.5821436
591.0168792
583.3244252
571.424493
554.0090338
529.5766519
496.499402
453.1006514
397.9097611
330.048233
251.5520141
158.4329416
71.92995131
593.9412312
593.81906
593.7662379
593.7091797
593.6921203
593.7155799
593.7617255
593.8242402
593.8932175
593.9801875
594.0796894
594.203786
594.3582883
594.5430107
594.757684
595.003088
595.2795142
595.5852294
595.9181301
596.2718974
596.6325885
596.9864081
597.3145397
597.6050703
597.8445666
598.0379347
598.2389408
598.4958884
598.8538354
599.3225642
599.8174599
600.2022783
600.3107137
600.0854529
599.3384821
597.8302577
595.5817928
592.1561475
586.6790738
578.1268418
565.4246559
547.3478382
522.4583432
489.1564612
445.7716438
390.9513724
323.8579383
246.583654
155.1334317
70.40637635
594.1159721
593.9944089
593.9425996
593.8875615
593.8714569
593.8960357
593.9428539
594.0055382
594.0743806
594.159342
594.2553396
594.3741585
594.5207666
594.6940688
594.8929985
595.1175178
595.3670482
595.639305
595.9305469
596.2346183
596.543202
596.8446584
597.1230672
597.3701453
597.5799191
597.750544
597.9144607
598.0921605
598.3010916
598.5358489
598.7298699
598.7619386
598.4697802
597.7472926
596.4166878
594.2813153
591.2185955
586.8425692
580.3414525
570.741061
557.0163848
538.0134737
512.3854902
478.6093205
435.1358332
380.718947
314.7043307
239.275418
150.2850647
68.17662729
594.2750923
594.1521653
594.0981823
594.0429584
594.0240141
594.0464754
594.0905926
594.1503791
594.2159537
594.2957664
594.3860438
594.4980739
594.635274
594.7954893
594.9769448
595.1788685
595.3998741
595.6370614
595.8859951
596.140222
596.3927479
596.6342481
596.852617
597.0400156
597.1871517
597.2940267
597.3783311
597.4444907
597.4862381
597.4628462
597.3005072
596.8957889
596.1003757
594.7902633
592.8197901
589.9551127
585.9490729
580.4028526
572.606642
561.6847137
546.6623258
526.4589067
499.8285293
465.3476995
421.655019
367.6438186
302.9285924
229.7887519
143.9681423
65.2649292
594.428006
594.3054852
594.2523198
594.1944374
594.179153
594.2037403
594.2470171
594.3053696
594.3683693
594.438215
594.5209194
594.6243232
594.7490775
594.8927173
595.053404
595.2297487
595.419556
595.6192435
595.8238265
596.0269685
596.2211851
596.3970229
596.5449758
596.6547058
596.713453
596.7221861
596.6756988
596.5662757
596.3675732
596.0163993
595.4415054
594.5405071
593.1579071
591.1497247
588.3694147
584.6086296
579.53846
572.7537744
563.6096877
551.2689215
534.8207306
513.2720437
485.5067638
450.2391401
406.3153202
352.8393128
289.6638366
219.1188684
136.9691939
62.07154252
594.5579062
594.4328929
594.3748471
594.3128904
594.2903885
594.3083878
594.3497244
594.4019149
594.4562249
594.5173387
594.5946572
594.6915941
594.8060368
594.9353038
595.077363
595.2302613
595.3908855
595.5549811
595.7168276
595.8697093
596.0054714
596.1147514
596.1856571
596.2055156
596.1608566
596.0448166
595.8385144
595.520771
595.0513571
594.3648777
593.376718
591.974586
590.0007569
587.3042242
583.6985893
578.9449035
572.7283483
564.6389545
554.0634189
540.224752
522.2765924
499.3159425
470.3515929
434.2937195
390.1572079
337.3506409
275.8681366
207.8056232
129.6505401
58.75071234
594.6879872
594.5646371
594.5082821
594.4514622
594.4329904
594.4563392
594.4980694
594.54471
594.5885184
594.6403567
594.7064412
594.7907094
594.8896071
594.9999332
595.1195857
595.2459348
595.3751976
595.5020974
595.6203137
595.7221026
595.7985703
595.8385128
595.8286877
595.7524471
595.5947751
595.3374086
594.9553414
594.4134556
593.660411
592.6209067
591.2033543
589.2786452
586.6828094
583.2536239
578.7752357
573.038218
565.6805347
556.2896609
544.2962307
528.9892987
509.5850989
485.2629808
455.1645216
418.3938295
374.1625475
322.1417787
262.4518902
196.7724632
122.5620661
55.56355415
594.7947839
594.6659083
594.6010516
594.5338781
594.5054322
594.5191693
594.5452911
594.5684418
594.6078681
594.6606275
594.7268277
594.8085054
594.8998511
594.9988323
595.1031892
595.2097521
595.3137899
595.4094703
595.4894949
595.5454242
595.566998
595.5417363
595.4537182
595.2835723
595.0116258
594.6125267
594.0542952
593.2895301
592.2567441
590.8728286
589.0434884
586.6166263
583.4286933
579.2977196
573.9877195
567.312579
558.8708085
548.2644677
534.9518445
518.2738781
497.516392
471.9492564
440.8341904
403.4510393
359.2294177
308.1055992
250.1916981
186.6684227
116.081156
52.65005415
594.9090775
594.7840713
594.7239566
594.6652916
594.6469917
594.665456
594.6811157
594.7044854
594.7404789
594.7829162
594.8350561
594.8963652
594.9694769
595.0479494
595.1307275
595.2131252
595.2892678
595.3524129
595.3946049
595.4060368
595.3751195
595.2876227
595.1249609
594.8645197
594.4829492
593.9468816
593.2215566
592.246835
590.9547994
589.2574642
587.0451139
584.1617579
580.4279991
575.6571467
569.6107687
562.0282095
552.5985455
540.8920204
526.394686
508.4993252
486.5658937
459.9306964
427.9711125
390.116087
345.9640554
295.5645566
239.319752
177.8840826
110.4262384
50.10080865
594.9974235
594.8595009
594.779098
594.7062724
594.6727745
594.6604984
594.6563714
594.6767725
594.7098688
594.7509682
594.803427
594.8670108
594.9384285
595.0157291
595.091352
595.1619321
595.2210857
595.2622028
595.2765962
595.2537014
595.1808253
595.0421789
594.8168594
594.4794456
594.0015264
593.3493041
592.4740231
591.3183179
589.7981116
587.8320405
585.280501
581.9977695
577.8059983
572.4729545
565.7946395
557.4770393
547.2350688
534.5952709
519.1063425
500.2193934
477.3190772
449.8338602
417.2234942
379.04272
334.9934209
285.1119138
230.0152219
170.5989541
105.7350097
47.9683486
595.1141895
594.9800402
594.9145562
594.8621922
594.8226609
594.800857
594.8012514
594.8123972
594.8311523
594.8603513
594.9006172
594.9496248
595.0048561
595.0630748
595.1200163
595.1697061
595.2072784
595.2247741
595.2127236
595.1591119
595.0495901
594.8670462
594.5897239
594.18771
593.6311893
592.8795388
591.8888599
590.581138
588.8866686
586.6948725
583.8853
580.2873535
575.732644
569.9795985
562.8131006
553.9257854
543.1085287
529.7360415
513.4692565
493.8284494
470.1963046
442.0874809
408.9964927
370.6145469
326.6804618
277.3079217
222.7819334
164.3016468
102.1033566
46.26116122
595.2001698
594.9830736
594.88828
594.8196589
594.7636147
594.7320536
594.7258402
594.7382471
594.7640035
594.8008762
594.8474058
594.9016086
594.9603911
595.0204034
595.0770307
595.1244691
595.155912
595.163433
595.137945
595.0669753
594.9379073
594.7287439
594.4160125
593.9716269
593.3584374
592.5391029
591.4612642
590.0537039
588.2329335
585.8883865
582.8897753
579.0694433
574.2473148
568.1954099
560.6809309
551.3995248
540.175841
526.3008592
509.511743
489.3387833
465.2300746
436.6985689
403.3191388
364.7976087
320.9733266
271.9341374
217.986823
159.9838407
100.0108887
44.65494851
595.3900209
595.0866041
595.0348356
594.9967483
594.9160805
594.8563597
594.8358617
594.8363782
594.8487639
594.8727439
594.907765
594.951335
595.0002114
595.05065
595.0977456
595.1357867
595.1577381
595.1552874
595.1191293
595.0371692
594.893924
594.6694285
594.3386949
593.8704009
593.2288831
592.3741179
591.253672
589.7951881
587.9176885
585.4981687
582.4111727
578.484701
573.5336161
567.3131356
559.6285715
550.1736484
538.654933
524.6152239
507.6043181
487.1738491
462.8264753
434.0964849
400.5801738
362.0056133
318.2641842
269.4888422
216.080999
158.9997892
100.0600328
45.3093872
589.8201525
589.5363238
589.3413946
589.1853948
588.9571729
588.7009575
588.4292882
588.1262654
587.7804303
587.3885469
586.9470562
586.4504336
585.8914516
585.2624418
584.5545483
583.7577585
582.8595207
581.8469773
580.7037977
579.413797
577.954853
576.3043132
574.4317375
572.3048252
569.8846579
567.1290578
563.9903081
560.3955515
556.2727447
551.520374
546.033184
539.6545303
532.2424893
523.5678032
513.5689164
501.9483433
488.4454004
472.9345504
454.9145755
434.0543479
410.0010597
382.4554275
351.1640432
315.9223069
276.6465303
233.4371284
186.6552808
137.5404575
85.74605816
38.34641321
589.6843883
589.4713118
589.2610115
589.0263748
588.8333547
588.6127096
588.3530056
588.0611382
587.7312931
587.355625
586.9292727
586.4475195
585.9041655
585.2914304
584.6001534
583.8200976
582.9386619
581.9439164
580.820258
579.5506108
578.1142162
576.486631
574.6409961
572.544938
570.1615781
567.4508398
564.3574406
560.819892
556.7569034
552.0809083
546.6733748
540.3974294
533.0951606
524.5906135
514.7063592
503.1992473
489.8649559
474.4939593
456.6475161
435.9520747
412.0514347
384.6346271
353.4317363
318.1972065
278.8168094
235.3188442
187.9489712
136.9177703
87.72729149
38.27916947
589.6843768
589.5503773
589.3877828
589.1730463
588.9713837
588.764492
588.5232355
588.2367904
587.9041254
587.5259608
587.1001335
586.6214131
586.0825661
585.4771193
584.7947391
584.0275052
583.1624773
582.1880141
581.0892199
579.8463418
578.4414567
576.8531668
575.0504738
573.0090888
570.6878586
568.0505211
565.0410612
561.6034997
557.6580909
553.1181348
547.8663296
541.7851992
534.7004702
526.4307692
516.7886807
505.5462929
492.5207019
477.4183261
459.8941224
439.50791
415.8991067
388.7321309
357.701192
322.4963711
282.9620821
239.1138035
191.2596603
139.790253
90.73057354
39.9908946
589.7023066
589.5729564
589.4160532
589.1897786
588.9371784
588.7293567
588.5141186
588.2505767
587.9385454
587.5819679
587.1809569
586.7304168
586.2230425
585.6535169
585.0101191
584.2814965
583.4585135
582.5284931
581.4781256
580.2904483
578.9469635
577.4264941
575.7039877
573.7502866
571.5328436
569.0125202
566.1420109
562.8644043
559.1086792
554.7900825
549.8042877
544.0215908
537.305064
529.4528629
520.2656514
509.5313201
496.9838131
482.4207796
465.4593495
445.635849
422.5521819
395.8481058
365.1187437
330.0113094
290.2884231
245.9489096
197.5496116
143.1409419
92.76022993
41.37313492
589.784347
589.6761963
589.5450564
589.3594096
589.1437097
588.9189217
588.7198357
588.4820062
588.1879516
587.8428597
587.4549029
587.0180109
586.5313094
585.9814092
585.3650206
584.6721658
583.8914459
583.0100418
582.0151355
580.8913588
579.6210547
578.1833593
576.5541756
574.7079955
572.6133096
570.2366729
567.5347343
564.4566776
560.937097
556.8928734
552.2261575
546.8160196
540.5137506
533.1311424
524.4462622
514.2575137
502.3934284
488.5491436
472.3009319
453.1846471
430.7638947
404.6313527
374.3029886
339.3410235
299.4053706
254.3790892
205.2237176
148.3215076
95.33024577
42.884879
589.8796088
589.7714006
589.6418099
589.4613397
589.2501498
589.0247166
588.7971399
588.5821693
588.3233176
588.0048126
587.6449248
587.2482766
586.8023761
586.2994751
585.7324879
585.0929683
584.3714253
583.5564497
582.6357455
581.5949165
580.4169215
579.0824226
577.5693883
575.8539584
573.9093031
571.7065041
569.2066423
566.3653878
563.1246481
559.4049617
555.1128999
550.1517994
544.3462988
537.5306892
529.4804901
519.9749796
508.8642479
495.8438289
480.4539091
462.1878297
440.5821649
415.1891607
385.3935176
350.6533535
310.5027801
264.5950674
214.0928348
154.8666842
99.75355485
44.94303014
590.0207363
589.9205285
589.8050976
589.6458814
589.4641616
589.2682258
589.057307
588.8348553
588.5960901
588.3151089
587.9843993
587.614138
587.2016331
586.739102
586.2194856
585.6352996
584.9775933
584.2349843
583.3958816
582.446519
581.371347
580.152139
578.7682182
577.1996898
575.4199887
573.4084019
571.1316971
568.5529121
565.6262666
562.2705752
558.4003062
553.940109
548.7064572
542.5222645
535.1757609
526.4505279
516.1961082
504.0974724
489.6755594
472.3725283
451.676157
427.1329174
397.9681598
363.5128324
323.1748908
276.4675881
224.3621931
162.6158482
104.9687776
47.36005362
590.1749721
590.075301
589.9617838
589.8071468
589.6321757
589.450781
589.254006
589.0435847
588.815366
588.5664757
588.2800037
587.9542517
587.5887948
587.1792379
586.7195894
586.2032672
585.622002
584.965807
584.2226228
583.3796574
582.4219051
581.3322011
580.0917102
578.6813594
577.0802449
575.2725527
573.2332537
570.9340279
568.3384183
565.3722452
561.9639092
558.0440259
553.4304929
547.9135021
541.2789074
533.3858487
524.0392123
512.9484382
499.5948024
483.3518333
463.6660804
440.0235559
411.5553496
377.4395067
336.9122051
289.3853223
235.5080143
171.0740451
110.6663768
49.96752701
590.3616741
590.2674012
590.1632702
590.0231545
589.8675257
589.7029538
589.5345451
589.3503809
589.1408497
588.9140692
588.6653563
588.3828755
588.0635979
587.706451
587.3077739
586.8615667
586.3602969
585.7949854
585.1548783
584.4268279
583.5956267
582.6444458
581.5552373
580.3093137
578.8891762
577.2851946
575.4830963
573.4692474
571.2099625
568.6480764
565.7203834
562.3642867
558.42302
553.7310434
547.8833952
540.8890829
532.476885
522.3928805
510.1024598
494.9382851
476.2818269
453.5608391
425.7835407
392.0089147
351.2873486
302.8938488
247.1536989
180.0713994
116.8027994
52.81908542
590.5606487
590.4675706
590.3662723
590.2332576
590.0837388
589.9386772
589.7899383
589.6300026
589.4477659
589.2430643
589.0346757
588.801419
588.5356436
588.2383054
587.9082765
587.5406594
587.1286387
586.6640155
586.1365939
585.5335153
584.8394424
584.0369612
583.1047693
582.0248693
580.7813831
579.374846
577.8005634
576.0605735
574.1417295
572.0024872
569.5737263
566.7688672
563.4015321
559.2702183
554.1670355
548.0447194
540.7533552
531.8991116
520.8031645
506.7508454
489.1232588
467.2757077
440.1147754
406.6009075
365.6556682
316.3504174
258.6593491
188.9765903
122.8334717
55.58704887
590.7826231
590.6941671
590.6025231
590.4794394
590.3455218
590.2175234
590.0899245
589.9551973
589.8015981
589.6288284
589.4591489
589.2719103
589.0590437
588.822486
588.5627107
588.2761922
587.9572237
587.59863
587.1909173
586.7207287
586.1701267
585.5214766
584.7517114
583.8424269
582.771423
581.5379427
580.1551156
578.6421164
577.020998
575.2885495
573.3635045
571.1500441
568.4852767
565.1543558
560.9312556
555.6585563
549.2774026
541.4016677
531.4213718
518.4623643
501.8241072
480.7405434
454.1079056
420.8049646
379.6493772
329.499097
269.9924082
197.7965241
128.8525809
58.4030187
591.0101339
590.9241796
590.8371594
590.7241078
590.6029516
590.4910006
590.3832599
590.2726775
590.1475184
590.0077145
589.8774015
589.7371469
589.5792709
589.4063242
589.220091
589.0185897
588.7976011
588.5512906
588.2708959
587.9411108
587.5440479
587.0593992
586.4574801
585.7144437
584.8049372
583.7200851
582.4985567
581.1968735
579.8752043
578.5513388
577.102746
575.3679721
573.1148324
570.2047351
566.4363504
561.7805028
556.9747876
550.7127777
541.9106405
529.9478458
514.227963
493.824311
467.6021594
434.3239887
392.7337371
341.607127
280.3966388
205.7665623
134.2551194
60.90892713
591.2532036
591.1703519
591.0890553
590.9863011
590.8783343
590.7835315
590.6960957
590.6102211
590.5141413
590.408003
590.3171071
590.2232545
590.1195453
590.0096203
589.8967798
589.780837
589.6594491
589.5286774
589.3799596
589.1980056
588.9646033
588.6546527
588.2315267
587.6482706
586.8663485
585.8649239
584.6676693
583.4316875
582.3307326
581.441127
580.6075231
579.5935459
578.1929155
576.1010873
572.8312398
568.7558091
563.9701623
558.8954542
551.6171667
540.8710099
526.0849375
506.3314065
480.4583637
447.1841637
405.1551509
353.0042793
290.2365888
213.2537156
139.2767399
63.2089104
591.4993035
591.4192413
591.343274
591.2496028
591.1537461
591.0741957
591.0061555
590.943534
590.8749529
590.8012994
590.7486252
590.6996081
590.6485177
590.6002052
590.5594828
590.528063
590.5059136
590.4913666
590.4759102
590.4474958
590.3878821
590.2665925
590.0383027
589.6434088
589.013206
588.1250798
586.9752349
585.7517358
584.8079319
584.2331715
583.7677382
583.0996685
582.060006
580.30397
575.9317011
571.5242288
573.2519844
567.812009
560.6548454
551.0147408
537.1833392
518.0181872
492.4652803
459.0269607
416.4176019
363.2136141
298.8913434
219.7908028
143.6259847
65.20736746