/*--------------------------------*- C++ -*----------------------------------*\
| =========                 |                                                 |
| \\      /  F ield         | OpenFOAM: The Open Source CFD Toolbox           |
|  \\    /   O peration     | Version:  2.2.1                                 |
|   \\  /    A nd           | Web:      www.OpenFOAM.org                      |
|    \\/     M anipulation  |                                                 |
\*---------------------------------------------------------------------------*/
FoamFile
{
    version     2.0;
    format      ascii;
    class       surfaceScalarField;
    location    "4";
    object      phi;
}
// * * * * * * * * * * * * * * * * * * * * * * * * * * * * * * * * * * * * * //

dimensions      [0 3 -1 0 0 0 0];

internalField   nonuniform List<scalar> 
265716
(
38.35029461
-1.274429766
-0.8309831288
-41.88298862
2.907671768
2.730435342
39.77419936
-0.8982346964
-0.1502315969
-0.07222066202
-0.3032176125
40.03364057
-0.1413107126
0.11817243
-0.07986962358
-0.1564331228
40.09217368
0.01848063361
0.0610255265
-0.05816464522
-0.07987441003
40.11940544
0.03336112447
0.04057918538
-0.04762446339
-0.05354740165
40.13676873
0.03313045494
0.03664777095
-0.0419544449
-0.04518676859
40.15091994
0.03193457456
0.03423921951
-0.03866273071
-0.04166197761
40.16342721
0.03061041823
0.0322143656
-0.03609258585
-0.03923908117
40.17480168
0.02908053804
0.03043806761
-0.03362060305
-0.03727215497
40.18545022
0.0274899221
0.02897639319
-0.03141555168
-0.03569887809
40.19569508
0.02586357232
0.02771455739
-0.0295653574
-0.03425729757
40.20559934
0.02416874401
0.02662868585
-0.02791162671
-0.0327895671
40.21507692
0.02235672013
0.02581144004
-0.02622196078
-0.03142340302
40.2241899
0.02043489134
0.02534247115
-0.02459879111
-0.0302909716
40.23321099
0.01842358111
0.02529899338
-0.02322175894
-0.02952149825
40.24234424
0.01634709973
0.02560081031
-0.02216954703
-0.0289109586
40.25162323
0.01409343069
0.02602463185
-0.02119930958
-0.02819730174
40.26054017
0.01146149143
0.02659549859
-0.01987394523
-0.02709924859
40.26860428
0.008544476902
0.02742817422
-0.01803846113
-0.02599780947
40.2753744
0.005676687492
0.02903061633
-0.01620920558
-0.02526733856
40.28121579
0.003201285655
0.03132518991
-0.01494367899
-0.0254236274
40.28635045
0.001273736461
0.03503857076
-0.01473428968
-0.02671168455
40.29181356
-0.0001519566775
0.04000847913
-0.01592479832
-0.02939433406
40.29823952
-0.001849061917
0.0448236763
-0.01762740956
-0.03177223511
40.30171929
-0.005681550875
0.04969733063
-0.01660229437
-0.03089304592
40.29895108
-0.01174667763
0.05211722487
-0.01092654496
-0.02667519106
40.28850339
-0.01802740784
0.05294256865
-0.003627466497
-0.0208403543
40.269065
-0.02469361607
0.05580753752
0.003973584125
-0.01564899078
40.242189
-0.03095251359
0.05999465341
0.008966258264
-0.01113274045
40.21163486
-0.03531035913
0.06532581667
0.009295025543
-0.008755228659
40.18576223
-0.03537951061
0.07519775785
-0.004600699216
-0.009344821759
40.18182195
-0.02910133773
0.08824721884
-0.03945686172
-0.0157487552
40.2197199
-0.01722112967
0.09663573249
-0.09126863788
-0.02604640279
40.27834788
-0.02008535706
0.1038223085
-0.1131393222
-0.02922668621
40.29080623
-0.06752330669
0.06978226841
-0.01665445038
0.001936007629
40.19147312
-0.09321476206
0.04161391156
0.058375877
0.09255731667
39.80843907
-0.1269577275
0.03744940132
0.1564848222
0.3160567352
39.52212027
-0.1686989921
0.03698534239
0.2140362884
0.2039948421
39.39181396
-0.1660468631
0.07135874372
0.148954663
0.07603752392
39.34441233
-0.1664284023
0.1009987993
0.105266599
0.007561578992
39.33062856
-0.1646758646
0.1272615223
0.07028011143
-0.0190851991
39.32932032
-0.1642588927
0.1456243166
0.04806276522
-0.02812295438
39.33058572
-0.1652326681
0.1574712391
0.03781940069
-0.03132621417
39.33064317
-0.1678527401
0.1656564309
0.03464109856
-0.03250528911
39.3306105
-0.1692679217
0.1690529549
0.03355385019
-0.03330981203
39.32829502
-0.1695583115
0.1697458391
0.03409556532
-0.03197169737
39.33679553
-0.1570329512
0.1547247876
0.03005208609
-0.03624704291
39.19635915
0.002350091765
0.09145142324
0.05553275533
-0.008897914285
38.2323891
0.7727703567
0.3234525966
-0.03820153149
-0.09405252257
1.158191844
0.9419844526
40.71045689
-2.280430806
-2.297812298
44.83720987
-0.2640632715
-2.10891975
-47.99020006
4.251543624
43.17189075
0.2840771655
1.567643878
-1.084636475
43.06635573
0.02786778529
0.09686609798
-0.1605094051
43.0824482
0.03481889517
0.06609890902
-0.09852945907
43.10482606
0.04013654502
0.0522679318
-0.08142102802
43.12081862
0.04232307716
0.0527971412
-0.07798208199
43.13393969
0.04280653071
0.05386515165
-0.07785794248
43.14563688
0.042236134
0.05486423679
-0.07818686866
43.15642312
0.04094803923
0.05578206347
-0.07843557162
43.16667295
0.03918429904
0.05653514945
-0.07847904653
43.17652542
0.03703903122
0.05713432949
-0.07816200166
43.18595482
0.03454037662
0.05761768494
-0.07741836106
43.19507158
0.03166484163
0.05805908747
-0.07648370064
43.20418156
0.02837705251
0.05860015842
-0.07565190067
43.21360513
0.02468250433
0.05933381707
-0.07501601647
43.22351627
0.02057739376
0.06024981807
-0.07439080912
43.23403317
0.01602584618
0.06106593753
-0.0735149617
43.24469346
0.01106333919
0.06187740148
-0.07213906332
43.25503371
0.005934229288
0.0628844272
-0.07061412633
43.26480448
0.0009734820796
0.06422467604
-0.06929169927
43.27400994
-0.003831379402
0.06675100704
-0.06892346127
43.28290332
-0.008029995604
0.07008612983
-0.06967519917
43.29188161
-0.01183761011
0.07455341336
-0.07184579284
43.30047128
-0.01617743697
0.07902058967
-0.07328139642
43.30736517
-0.02260819616
0.0797354507
-0.06970267473
43.30839196
-0.03192930977
0.07963706806
-0.06048099456
43.30264025
-0.04014991031
0.07677334614
-0.04889951061
43.28799747
-0.04700659408
0.07628720424
-0.03933156822
43.26660117
-0.05417791138
0.07573160759
-0.03111030697
43.24000001
-0.06225027887
0.07957688817
-0.0260354293
43.2150646
-0.07168256689
0.08295526449
-0.02171705797
43.19832585
-0.08462549777
0.09166938848
-0.01940673107
43.20136436
-0.09879823531
0.09701249857
-0.01847558192
43.22033377
-0.1162495372
0.09045891541
-0.0132651256
43.23213514
-0.133190537
0.04948317569
0.004381440297
43.1879897
-0.1511765905
0.009681901574
0.09242397937
42.03202165
-0.1663194607
-0.002508452643
1.197837159
41.51593297
-0.1794437124
-0.002064742517
0.5288972453
41.33321862
-0.1936796688
0.02919009188
0.1811551891
41.28642413
-0.2077881237
0.05467723675
0.03347519102
41.27915068
-0.2199504167
0.07844597517
-0.01590021303
41.27916803
-0.2303438129
0.09614165843
-0.03007604954
41.27807484
-0.2365969624
0.1072202666
-0.03476493562
41.27521072
-0.2419960376
0.1145837015
-0.03757828164
41.27148787
-0.2441083531
0.1182352184
-0.03967440096
41.26657511
-0.2455369865
0.1207899848
-0.03990112584
41.29321701
-0.24360087
0.1044375127
-0.04451432641
41.48828273
-0.2495725857
0.07416010871
-0.01730548633
44.34943414
-0.5273007743
-1.422462766
-0.1386187254
0.04166991232
2.29723146
47.47298167
-4.304257015
47.43220039
-0.009831081332
-2.452788584
-49.32565092
4.092007125
45.07195784
0.03122860775
4.156022919
-1.542931646
48.84489451
-0.1474231439
-3.822218713
0.224573185
48.81242748
-0.0261902465
-0.05186236226
0.1453387458
48.78453627
0.02748656116
-0.00352701652
0.04406844269
48.78272153
0.03453219983
0.0296570471
-0.02005118341
48.79376763
0.03476148922
0.04656321329
-0.04956399672
48.80877976
0.03349091893
0.05389218729
-0.06015883679
48.82420715
0.03102451892
0.05691793286
-0.06242150266
48.83934322
0.02782784728
0.05840758561
-0.06218690249
48.854098
0.02414879134
0.05949666659
-0.06136086136
48.86857269
0.01997837853
0.06054273192
-0.06045507582
48.88298514
0.01514787938
0.0616818697
-0.0595769721
48.89748036
0.009574857133
0.06306595576
-0.0587585859
48.91234939
0.003205729549
0.06465569052
-0.05804751375
48.92752157
-0.003619486367
0.06652554241
-0.05750041502
48.94314437
-0.01096610727
0.06847145715
-0.05710184294
48.95909736
-0.01913710209
0.07095354993
-0.05670564711
48.97538429
-0.0278114724
0.07362357252
-0.0561643075
48.9916203
-0.03661605044
0.07703200752
-0.05567798327
49.0077747
-0.04520525408
0.08106828726
-0.05584826006
49.02422116
-0.05345686706
0.08590762385
-0.05692670475
49.04117825
-0.06134725443
0.09134886403
-0.05879581009
49.05834832
-0.0695311158
0.09613028225
-0.05994631974
49.07353938
-0.07937431738
0.09938406402
-0.05780876157
49.08137294
-0.09005903996
0.1016712117
-0.0513750048
49.07825182
-0.09813357661
0.1042368924
-0.0431322302
49.06509732
-0.1039478653
0.1059741027
-0.03587860908
49.04366226
-0.1112061924
0.1088364735
-0.03037329506
49.01579535
-0.1202198784
0.112172449
-0.02633607904
48.98491245
-0.1319029559
0.1145894704
-0.02348645171
48.95648945
-0.1473649728
0.112136071
-0.02097444998
48.93839625
-0.1655936758
0.1037277368
-0.01884049056
48.93696274
-0.1886055656
0.08547322439
-0.01168515879
48.95305586
-0.2129168127
0.0600882347
0.003542744047
48.95489738
-0.2429345436
0.001071988858
0.08884259333
47.94314387
-0.2673423323
-0.1125530762
1.225328035
47.53198179
-0.2894730132
-0.02186014373
0.5430498972
47.39988119
-0.3163947981
0.06385152419
0.1909620645
47.37639313
-0.3414425395
0.1140512861
0.04308875028
47.38089687
-0.3618300933
0.1432358874
-0.005862465301
47.38710847
-0.3803512331
0.1642708195
-0.02047776718
47.38994822
-0.3922548347
0.1785035871
-0.02568820137
47.39057058
-0.4036724712
0.1900754059
-0.02902438517
47.39103798
-0.4096805503
0.196964426
-0.03186286552
47.38012681
-0.4102021383
0.2077578625
-0.0321853493
47.33287773
-0.3560543431
0.2022136879
-0.0425153481
42.55586114
-0.1944931677
4.732493835
-0.01056063523
46.57304788
-0.3562746737
-4.068011151
-0.1202024822
-0.3077559365
2.627812247
48.71885315
-4.424191891
47.85963016
0.004182668196
-2.521702929
-49.37251643
4.020575662
45.07465719
0.009537198281
4.226820599
-1.420156051
51.96635717
0.009043260905
-7.809910658
0.7617444618
52.37860028
0.01468024863
-0.9655224371
0.5124090219
52.26479583
0.02610921813
-0.1029394887
0.2181214701
52.23914456
0.03027438528
-0.005636175765
0.03554547864
52.24263994
0.02904818905
0.03795518156
-0.03573704201
52.25591217
0.02680361704
0.05333062932
-0.05991532325
52.27111798
0.02363250634
0.05975571388
-0.06756928627
52.28579037
0.01952371863
0.06275165742
-0.06911965557
52.29992285
0.0145961672
0.06442892934
-0.06900852449
52.31380359
0.008932681929
0.06574694688
-0.06858170766
52.32754378
0.002508625353
0.06698064229
-0.06808128869
52.34172498
-0.005297801522
0.06814746704
-0.0674556821
52.35648067
-0.01410893017
0.0694083616
-0.06684908921
52.37200279
-0.02372881422
0.07084245784
-0.06625491497
52.3884599
-0.03424286235
0.07252838212
-0.06570843131
52.40574064
-0.04559346363
0.07445826536
-0.06528231186
52.42372982
-0.05755380045
0.07672516904
-0.06497172472
52.44217481
-0.06981853894
0.07935582236
-0.06459798741
52.46088127
-0.08203487065
0.0825797384
-0.06445628135
52.47991778
-0.0938258513
0.08649117218
-0.06515836648
52.49930467
-0.105047079
0.0909786526
-0.06666552321
52.51838333
-0.116082383
0.09510365232
-0.06763087681
52.53424503
-0.1273845358
0.09742456222
-0.06527609637
52.54180278
-0.1374723983
0.09849055987
-0.05863508262
52.5398015
-0.1455212521
0.09946246289
-0.05007388341
52.52830862
-0.1509531589
0.1009657913
-0.04246801505
52.50809739
-0.1576976935
0.1031919132
-0.03648980461
52.48006099
-0.1664886173
0.1061861672
-0.03188113901
52.4489499
-0.178000292
0.1049937455
-0.02778621432
52.41820999
-0.1903400527
0.09718072895
-0.02346690274
52.40129596
-0.2118463023
0.08178436666
-0.01861929506
52.39817097
-0.2340595341
0.05436084944
-0.005783468337
52.40363
-0.2589112325
0.01098141499
0.02955233907
52.38091216
-0.2878894215
-0.07311950396
0.14079064
52.22990667
-0.3160542655
-0.2380098354
0.437725501
52.15149526
-0.3444202
-0.1395480851
0.2729050598
52.13812331
-0.3757361715
-0.03789621976
0.1106071474
52.15442554
-0.4058159927
0.01772568597
0.03034342138
52.17798745
-0.4330891328
0.04529252538
0.002401767567
52.19385223
-0.4521992359
0.06272688664
-0.006746196323
52.20425788
-0.4666240445
0.07469387198
-0.01073318449
52.21149831
-0.4809023011
0.08375869064
-0.01377222416
52.21593852
-0.488498232
0.09104190911
-0.01666744264
52.22415643
-0.4955294462
0.09395291554
-0.01684663145
51.48831861
-0.4852731966
0.8930576467
-0.02800491801
42.5675914
-0.4386400284
9.160400252
0.004470374518
46.90028279
-0.3937292855
-4.18574666
-0.1094915596
-0.3740461843
2.659490273
48.74217209
-4.435089554
47.90798335
0.003369759633
-2.523525951
-49.38685616
4.003211913
45.06903934
0.00694376783
4.229545331
-1.388007735
51.98397678
0.01280921593
-8.007515218
1.088812016
53.06978092
0.01701566178
-1.823423836
0.7352844593
53.84505391
0.02095607553
-1.092720072
0.3226004163
53.81388189
0.023006235
-0.03454106621
0.07298143857
53.81677295
0.02158555361
0.02922371824
-0.024651927
53.8295296
0.01838697237
0.04989220657
-0.05423197625
53.84570768
0.01417580772
0.05672047086
-0.06344160557
53.86208587
0.009115062708
0.05916103748
-0.06513030102
53.87832769
0.002967923869
0.06009793838
-0.06471123174
53.89452979
-0.003922332278
0.06079160975
-0.06413837774
53.91083872
-0.01180255836
0.06148910798
-0.0634865361
53.92724979
-0.02115494395
0.06229703556
-0.06285060971
53.94398847
-0.03188139945
0.06322870077
-0.06219456496
53.96140146
-0.04394836151
0.06439224661
-0.06158533551
53.97970691
-0.05732609968
0.06589690029
-0.0611187723
53.99907026
-0.07192444969
0.06769213594
-0.06072417113
54.01950667
-0.08752232414
0.0697841509
-0.06025173808
54.04092578
-0.103766743
0.07225128845
-0.05972187993
54.06328693
-0.120182676
0.07531390445
-0.05952696568
54.08665909
-0.1362085394
0.07925823642
-0.06024744365
54.11096131
-0.1513282069
0.08380372499
-0.06182465939
54.13503326
-0.1653450153
0.08799136964
-0.06280062623
54.15612365
-0.1788024281
0.09104934031
-0.06072198368
54.16957916
-0.1896393003
0.09341764741
-0.05470654057
54.17233302
-0.1980054981
0.09617784311
-0.04644791706
54.1633385
-0.2021853309
0.09947267582
-0.03924664216
54.14484022
-0.2069057839
0.1015258207
-0.03381959595
54.11788546
-0.2130704631
0.1028808083
-0.02934500135
54.08626662
-0.2224922916
0.1008663589
-0.02475708279
54.0600039
-0.2354938535
0.09169720062
-0.0202823221
54.04008468
-0.2508328313
0.0734696418
-0.01456591952
54.03622955
-0.2698626529
0.04446493933
-0.004808531341
54.04854811
-0.2925946992
0.00315620145
0.01820688901
54.06676362
-0.3188986506
-0.05783433657
0.0706253393
54.06802937
-0.3460038131
-0.1203927363
0.1490744517
54.08219018
-0.3752318437
-0.0915377761
0.1081851457
54.10995039
-0.4072541165
-0.04838206958
0.05213752274
54.14164345
-0.4397553313
-0.01990909336
0.02215092183
54.16667146
-0.469380432
0.0006116040061
0.01064845653
54.18845094
-0.495829811
0.0167048424
0.005142295741
54.2039908
-0.5148870911
0.0313042315
0.001414732036
54.21533918
-0.5320901375
0.04201208209
-0.002176820662
54.22472599
-0.5450221049
0.05296235197
-0.005830431636
53.28171068
-0.5481004349
1.00094793
-0.005365252836
51.70848268
-0.5306315656
1.634334322
-0.01575177289
42.57134574
-0.4776157174
9.156435158
0.01967431912
46.91424728
-0.4185488599
-4.22171639
-0.09636717904
-0.3961895875
2.614186881
48.75847655
-4.436272954
47.91551802
0.001985840486
-2.523561953
-49.39009048
3.99951859
45.07024309
0.004191434141
4.228257317
-1.380229864
51.92438416
0.008079015718
-8.085488061
1.236077379
52.99658009
0.01067148377
-1.89890482
0.8330532371
54.69554454
0.01289813356
-2.057188202
0.3662818849
55.09285889
0.01427526523
-0.4745148078
0.0859316347
55.09945711
0.01398339874
0.02314983416
-0.02214567307
55.11205468
0.0107846096
0.04875470904
-0.05374966202
55.1272183
0.005925065969
0.05689649331
-0.0638090937
55.14171847
0.0004428439905
0.06007202901
-0.06589966613
55.15563586
-0.006926844624
0.06161337472
-0.0656356437
55.16935378
-0.0152544254
0.06265625944
-0.0650417048
55.18334474
-0.02497149828
0.06363297222
-0.06445458554
55.19770439
-0.03629796844
0.06460884519
-0.063825044
55.21270168
-0.04934141524
0.06564054952
-0.06317737899
55.22861855
-0.0641262764
0.06684395342
-0.06258245972
55.2457148
-0.08063801972
0.06833042906
-0.06211432613
55.26421302
-0.09877860845
0.07008983409
-0.06173348721
55.28423676
-0.1183127226
0.07204362113
-0.06127657655
55.30576378
-0.1388225023
0.07424502033
-0.06071590162
55.32880901
-0.159724015
0.07694647632
-0.06044999344
55.35346215
-0.1802653096
0.08048101187
-0.06107704914
55.37959259
-0.1996476735
0.08482621862
-0.06263697959
55.40586952
-0.2170054028
0.0889743492
-0.06359082973
55.42899429
-0.2325882819
0.09208667241
-0.06142572679
55.44419256
-0.2435147474
0.09400606819
-0.05532920024
55.44822665
-0.2510198787
0.09620151138
-0.04722172756
55.44037252
-0.2536093708
0.09937249403
-0.04009466466
55.52425859
-0.2564296704
4.610655567e-05
-0.03440903368
55.49741797
-0.2599691093
0.1035004649
-0.02976226666
55.24608749
-0.2634861911
0.3169451536
-0.02462284681
55.07486908
-0.2691896859
0.2235223662
-0.01861034743
55.0441539
-0.2779601869
0.07033451588
-0.01249442189
55.04134468
-0.2906976237
0.02835555599
-0.004713471485
55.05124978
-0.3070810359
-0.003113424995
0.007691510907
55.0921043
-0.3261365208
-0.06224163741
0.0286224476
55.1452518
-0.3468853052
-0.1032351118
0.05096519484
55.19515917
-0.3706893209
-0.09800849837
0.04355499572
55.23665252
-0.3988221789
-0.08091288876
0.03098148364
55.27464976
-0.4295297524
-0.0730815078
0.0248547401
55.45132294
-0.4615275731
-0.2066591737
0.02212801124
55.70453361
-0.4953626485
-0.2724198706
0.01873627091
55.72317529
-0.521009144
-0.02774334442
0.01521748861
55.63780691
-0.5384160597
0.07980811286
0.01187914885
55.21390365
-0.5500268694
0.4198628943
0.009038556824
53.30919504
-0.5491995088
1.896420947
0.009381631776
51.73046413
-0.5312509258
1.58033851
-0.0009922876378
42.58483829
-0.4794775885
9.113229312
0.03425496083
46.93236068
-0.4190968807
-4.262726187
-0.08424980293
-0.395688612
2.581841713
48.78678387
-4.436766032
47.91564113
0.001400732194
-2.523346068
-49.3905064
3.998796743
45.06744852
0.002909751502
4.228268649
-1.378794178
51.89500651
0.005348991922
-8.108620986
1.28379324
52.95606795
0.006787179719
-1.920783653
0.8636066852
54.65749042
0.007464989282
-2.074891068
0.3789019427
55.48046201
0.00753613258
-0.9056294416
0.08939720264
55.87882368
0.006720988611
-0.3693840592
-0.02171494683
55.89156365
0.003597148695
0.0476571275
-0.05320934976
55.90641044
-0.001871823075
0.0559876986
-0.0630372889
55.92159441
-0.008410400037
0.05874994854
-0.0650803321
55.93601837
-0.01642675173
0.05981895117
-0.06474261946
55.95009744
-0.02582532051
0.06057819953
-0.06408595362
55.96408192
-0.0368819447
0.06132290073
-0.06339647283
55.97821458
-0.04986688907
0.06208393033
-0.0626471987
55.99281701
-0.06497771464
0.06292859496
-0.06189422893
56.00828756
-0.08233330584
0.06394164804
-0.06120468103
56.02505092
-0.1019784057
0.06520070618
-0.06062320551
56.04349631
-0.1238631988
0.06676183418
-0.06012219181
56.0639481
-0.147760548
0.06855693599
-0.05956046706
56.08660379
-0.1731942131
0.07063626095
-0.05891980986
56.11176156
-0.19942022
0.07311067865
-0.05857183528
56.1397062
-0.2254977786
0.07633719619
-0.05904900387
56.17016169
-0.2500198677
0.08037710421
-0.06046015979
56.20257354
-0.2720965555
0.08406197829
-0.06138260263
56.23232784
-0.2905103058
0.08720140283
-0.05903378016
56.25487143
-0.3028415379
0.08968151487
-0.05289860678
56.26559644
-0.3086585093
0.09207122358
-0.0451580377
56.26153203
-0.3087655755
0.09760220832
-0.03838224498
56.13779202
-0.3047564485
0.2049089562
-0.03284286631
56.02281271
-0.3006996743
0.1837082619
-0.02799989712
55.5480624
-0.2959459185
0.5299794796
-0.02277160956
55.23490093
-0.2935298223
0.35379725
-0.01629822401
55.20211252
-0.2945534197
0.05896976979
-0.009590205595
55.18767692
-0.2972984633
0.02298754869
-0.0019537676
55.1857707
-0.3018140522
-0.009633491387
0.006269815352
55.22562893
-0.3079180103
-0.07516867995
0.01708879691
55.28954756
-0.3170829242
-0.1199147458
0.02618957466
55.34743451
-0.3332766716
-0.1240428487
0.02873755165
55.38978436
-0.3578889025
-0.1131657792
0.02987820477
55.42813552
-0.3879003799
-0.1116646286
0.03167781513
55.74976974
-0.4205658875
-0.3942740378
0.03167257535
56.23002492
-0.4575936767
-0.5468117856
0.02878106448
56.34222353
-0.4876014695
-0.1710573169
0.02544407737
56.07001003
-0.5075526829
0.2189864438
0.02235589425
55.21150653
-0.5200618637
0.8091221796
0.01940883434
53.30925526
-0.5209978655
1.853589147
0.02045496636
51.730638
-0.5031831545
1.540785393
0.009759881653
42.58891736
-0.4539701205
9.070009138
0.04620002885
46.93614041
-0.3963723194
-4.297473263
-0.07247557554
-0.3751766185
2.545830332
48.80467575
-4.434878027
47.91596375
0.0006318476205
-2.523459359
-49.39044735
3.998712133
45.0680277
0.00140319546
4.227950209
-1.378507383
51.89033502
0.002577532365
-8.115511919
1.295976276
52.95015104
0.00302172299
-1.927049117
0.870998751
54.65381203
0.002690632687
-2.080882616
0.3819961825
55.47863187
0.001913734415
-0.9094002085
0.09020300987
56.27324571
-6.029613382e-05
-0.7662978172
-0.02153447071
56.52145475
-0.002909749491
-0.18859176
-0.05311008859
56.53498743
-0.007883091794
0.05541331359
-0.06293440172
56.5480446
-0.01498258237
0.05861875881
-0.06510338642
56.56032247
-0.02387507168
0.05998199233
-0.06481116092
56.57205303
-0.0343622636
0.06102103653
-0.06421423136
56.58350581
-0.04673148304
0.0619853888
-0.0635881682
56.59500713
-0.06136549513
0.06289202502
-0.06289426686
56.60693481
-0.07853920901
0.0638091722
-0.06217486888
56.61973919
-0.09846380015
0.0648228541
-0.06149625785
56.63396051
-0.1212878515
0.06600813248
-0.06091954448
56.65017758
-0.1470458875
0.06739060452
-0.06042453504
56.66893454
-0.1755832202
0.06891456003
-0.05984839623
56.69070588
-0.2063822184
0.07055924243
-0.0591421469
56.71603513
-0.2386094545
0.07255255679
-0.05869216749
56.74547844
-0.2710756105
0.0752587045
-0.05912383366
56.77924648
-0.302016207
0.07872439254
-0.06049586278
56.81601483
-0.3299677609
0.08216365663
-0.06106072251
56.85140409
-0.3516747401
0.08456858299
-0.05879351843
56.88060507
-0.3663293283
0.08667479159
-0.05238822557
56.89706769
-0.370064304
0.0896552338
-0.04471242929
56.65814166
-0.3644666138
0.3329289268
-0.03830249264
56.22495792
-0.351552783
0.5132194861
-0.03324037221
56.02263594
-0.3391898782
0.2688384334
-0.0280279513
55.54104076
-0.3240956901
0.5324550406
-0.02271248925
55.22699925
-0.3137246169
0.3499103706
-0.01567628083
55.20687594
-0.3074501558
0.04109258084
-0.008075446886
55.1911613
-0.3031865108
0.02152609991
7.421919858e-05
55.20046612
-0.2974157628
-0.02129217557
0.007585616877
55.24235663
-0.2898907281
-0.07496380641
0.01504278991
55.29673549
-0.2831664081
-0.1089889646
0.02068913793
55.34417037
-0.2857218718
-0.1206823672
0.02568864334
55.38067475
-0.3008228168
-0.1256965869
0.03211997782
55.41563122
-0.3259170098
-0.1348308217
0.03788515134
55.73620552
-0.3576645063
-0.4231207727
0.0396391195
56.21716484
-0.3964623572
-0.5794607544
0.03736411396
56.42400213
-0.4300464126
-0.2988667931
0.03446757544
56.16741667
-0.4544735869
0.1722264213
0.03127292006
55.21375144
-0.4697672716
0.8747191844
0.02864408038
53.31658091
-0.4765316033
1.824030887
0.02866786798
51.7458221
-0.4617736191
1.511500246
0.01784504119
42.60777713
-0.4193048331
9.049915967
0.05345968561
46.95848429
-0.3662413185
-4.31329752
-0.06754171042
-0.3446241668
2.533021939
48.83152742
-4.436617795
47.91530562
0.000281542101
-2.523387614
-49.39029458
3.998727213
45.06663227
0.0006484944176
4.227915955
-1.37848771
51.88621866
0.001061522349
-8.115978769
1.297908636
52.94375486
0.0008426187302
-1.927367573
0.872010662
54.64580126
-0.0004088039174
-2.081320963
0.3823742029
55.46894016
-0.001865198707
-0.9096016028
0.09024187246
56.2626436
-0.00512856426
-0.7672358392
-0.02139906209
56.7459012
-0.00838705191
-0.4245177739
-0.05326223177
56.97473293
-0.01368786049
-0.1599145973
-0.06311204294
56.98731442
-0.02076818509
0.05826739837
-0.06506293429
56.99859329
-0.0300624733
0.05959954308
-0.06469062445
57.00900735
-0.04121625082
0.06048277223
-0.0640424353
57.01886734
-0.05452795544
0.06130545013
-0.06336851123
57.02847145
-0.07044423335
0.06210343224
-0.06262832974
57.03824783
-0.0893500033
0.06290233403
-0.06186744101
57.04874012
-0.1115715369
0.06375458361
-0.06113865898
57.06063235
-0.1374069707
0.06470756472
-0.06048020416
57.07473024
-0.1670218722
0.06576170533
-0.05988312542
57.09190107
-0.2003826424
0.06683637886
-0.05920730722
57.11303056
-0.2370063501
0.06786823369
-0.05837311261
57.13920956
-0.2761082406
0.06900689122
-0.05768666854
57.17182192
-0.3164439843
0.0706491757
-0.05789278892
57.12945512
-0.3549503345
0.1542875839
-0.05898639552
57.07479671
-0.388476746
0.1722109363
-0.05904343653
57.08245103
-0.4144928285
0.1116459958
-0.05648227031
57.12161183
-0.430824251
0.07482664123
-0.04949268785
57.14783695
-0.4333221598
0.07891869166
-0.04188628705
56.68034865
-0.4224043205
0.5617763497
-0.03635093261
56.25253488
-0.3990807634
0.506768978
-0.031428132
56.05206718
-0.3756184184
0.2636153814
-0.02672090237
55.57354174
-0.3497554262
0.525574414
-0.0213916254
55.26064752
-0.3296221191
0.3431101977
-0.01432105071
55.2378592
-0.3135525273
0.035220067
-0.006331455443
55.22302842
-0.3000777765
0.00993525723
0.001783585778
55.21382915
-0.2844702986
-0.01274294588
0.008993189099
55.24459877
-0.2623428458
-0.07610248285
0.01778136024
55.28787681
-0.2372337913
-0.1121166598
0.02290319805
55.32744704
-0.2230062085
-0.1335149078
0.0312241012
55.35952852
-0.2252384656
-0.1469616422
0.03929083253
55.3929977
-0.244034086
-0.1619978672
0.04663932944
55.71431813
-0.2733613583
-0.4551054803
0.0494771024
56.19942558
-0.3121312325
-0.6169985589
0.04755376147
56.31953288
-0.3470859759
-0.2484436168
0.04537006965
56.25735492
-0.3751937657
-0.05953478878
0.04242572176
55.20257489
-0.3907138339
0.935424145
0.04029523529
53.30786253
-0.4006694281
1.777089794
0.04175520333
51.73437408
-0.387445387
1.467220847
0.03193568145
42.60399171
-0.3519455757
8.992559687
0.0704597274
46.95563422
-0.3067116389
-4.360634709
-0.05053842762
-0.2895081355
2.481679323
48.84920794
-4.430369331
47.9152387
-0.0001321100381
-2.523434057
-49.3901406
3.998749927
45.06666724
-0.0001327748022
4.227796957
-1.378443988
51.88626564
-0.0003804836032
-8.116440666
1.298284504
52.94381837
-0.001104732689
-1.927872965
0.8722677945
54.64558307
-0.00270867269
-2.082019826
0.3825551876
55.46832012
-0.004579362792
-0.9104603371
0.09043768733
56.2612276
-0.008418266439
-0.7684503046
-0.02116720201
56.74367957
-0.0119218302
-0.4258671468
-0.05304975643
57.18641147
-0.01782256151
-0.3753657295
-0.0632311699
57.1975312
-0.02456242468
0.05769260012
-0.06501775067
57.20657633
-0.03379163301
0.05933151937
-0.06464712945
57.21435865
-0.04521891819
0.06027560877
-0.06405486557
57.22125891
-0.05907169948
0.06106498516
-0.06342107091
57.22752888
-0.07580860934
0.06179832091
-0.06270346977
57.23359903
-0.09592680799
0.0624567751
-0.06194966005
57.24009976
-0.1199073116
0.06304784797
-0.061212353
57.24783655
-0.1482123165
0.0635856422
-0.06051662386
57.25784173
-0.1811945589
0.06402073798
-0.05985276261
57.27135867
-0.2190443956
0.06421718754
-0.05907189196
57.29010646
-0.2616700941
0.06403198146
-0.05811556658
57.23417349
-0.30794079
0.1449616927
-0.05719573633
57.16992478
-0.3558741779
0.1606316698
-0.0569524164
57.05414777
-0.4028424358
0.2212745904
-0.05760524548
56.86490448
-0.4441752258
0.3021888734
-0.05724699031
56.82560032
-0.4760442666
0.1544415819
-0.05358604075
56.87768892
-0.4954583187
0.05850235664
-0.04595715052
56.91706303
-0.4965806312
0.062679021
-0.03879466211
56.69701174
-0.4781997554
0.3101266232
-0.03428048276
56.27473628
-0.4444595312
0.4979559543
-0.0303020769
56.07508319
-0.406737657
0.2568703017
-0.02609966546
55.60036954
-0.3708373834
0.516275355
-0.02048171484
55.29129613
-0.343716436
0.3355772993
-0.01241190462
55.28198781
-0.3252629292
0.02520421238
-0.004188006307
55.29215609
-0.3038711937
-0.0111488473
0.004771468847
55.28927694
-0.2729744894
-0.02149808122
0.01287713165
55.31667497
-0.2236793432
-0.08510618038
0.01904173537
55.3276115
-0.1644460304
-0.1068352556
0.02310697239
55.3401723
-0.1294224289
-0.1355313535
0.02938460444
55.35327676
-0.1179773651
-0.1643535927
0.04398175756
55.37639361
-0.1335292621
-0.185070515
0.05144345484
55.66446242
-0.1626802172
-0.4540684609
0.05531262985
55.92466748
-0.2022256757
-0.4248755886
0.05476081846
55.95899901
-0.2409513833
-0.1938924307
0.05342053456
55.99600962
-0.2778340858
-0.1850484132
0.05067189336
55.20447767
-0.3024992396
0.6561092957
0.04720248774
53.3238202
-0.3240806546
1.757488558
0.0465754764
51.75968928
-0.3182828906
1.45975121
0.03521407344
42.63108276
-0.2949046668
9.000276625
0.07128521279
46.98567075
-0.252728457
-4.356571046
-0.0520010385
-0.2344927872
2.4881293
48.87749585
-4.434970173
47.9147826
-0.0003144274347
-2.523394752
-49.38997101
3.998765859
45.06581986
-0.0004937032188
4.227769951
-1.378446081
51.88457746
-0.001196783657
-8.116135381
1.298194377
52.94102235
-0.002158725112
-1.927567335
0.872176615
54.6416912
-0.004093385465
-2.081811323
0.3825273882
55.46303768
-0.006130019835
-0.9102132579
0.09041767151
56.25451394
-0.01036342163
-0.768414178
-0.02111665477
56.73533991
-0.01384987148
-0.425876398
-0.05302124234
57.17613238
-0.01999311374
-0.3753656543
-0.06325595609
57.18546834
-0.02654987461
0.05765490374
-0.06500308202
57.19248647
-0.03554678621
0.05931869387
-0.0645813021
57.1978698
-0.04687808112
0.0602298832
-0.06395365865
57.20195134
-0.06081030368
0.06094296835
-0.06328547339
57.20493071
-0.07783295324
0.06157360205
-0.06252817861
57.20720084
-0.09854897775
0.0620727837
-0.06172027307
57.20941951
-0.1236123543
0.06239592151
-0.06090907649
57.21251043
-0.1536932842
0.06248223954
-0.06009170637
57.21774303
-0.1893488079
0.06218625816
-0.05926410282
57.20120406
-0.2312147628
0.0870333016
-0.05832344684
57.12977784
-0.2793584918
0.1461963051
-0.05708118372
56.92765315
-0.3323363455
0.2820731663
-0.05555244866
56.72178798
-0.3881654825
0.2924738136