/*--------------------------------*- C++ -*----------------------------------*\
| =========                 |                                                 |
| \\      /  F ield         | OpenFOAM: The Open Source CFD Toolbox           |
|  \\    /   O peration     | Version:  2.2.1                                 |
|   \\  /    A nd           | Web:      www.OpenFOAM.org                      |
|    \\/     M anipulation  |                                                 |
\*---------------------------------------------------------------------------*/
FoamFile
{
    version     2.0;
    format      ascii;
    class       volVectorField;
    location    "4";
    object      U;
}
// * * * * * * * * * * * * * * * * * * * * * * * * * * * * * * * * * * * * * //

dimensions      [0 1 -1 0 0 0 0];

internalField   nonuniform List<vector> 
86889
(
(15.03496347 0.006001970945 0.004879183101)
(15.05344325 0.004762579654 0.006238024815)
(15.05654532 0.001968047219 0.006447853266)
(15.06186076 0.00167791374 0.00461909037)
(15.06913741 0.0003804048992 0.002489644916)
(15.07647702 -0.001658846104 0.0005415192218)
(15.08197164 -0.00316431533 -0.0009263548623)
(15.08658005 -0.004180430449 -0.002069147376)
(15.09093927 -0.004927008441 -0.00295586682)
(15.09498887 -0.005423127397 -0.003578085264)
(15.09887252 -0.005727433519 -0.004034433619)
(15.10257766 -0.005922193346 -0.004382997945)
(15.10620179 -0.006076843745 -0.004616557292)
(15.10962678 -0.006186188453 -0.00470313222)
(15.11301023 -0.006235639608 -0.00462186843)
(15.1164465 -0.006230764869 -0.004418783472)
(15.12005 -0.006257012743 -0.004212849588)
(15.1237786 -0.006429925785 -0.004052746538)
(15.1273909 -0.006754407617 -0.003904076587)
(15.13070739 -0.007100305163 -0.0036014408)
(15.13379148 -0.007333828099 -0.003031581514)
(15.13676692 -0.007371776013 -0.002137349748)
(15.13989029 -0.007123962517 -0.0008937897839)
(15.14373126 -0.006795045692 0.0004093159785)
(15.14844642 -0.007179493458 0.001154449398)
(15.15137515 -0.00820607786 0.001118090961)
(15.15217579 -0.00923522886 0.0009401977665)
(15.15058928 -0.01045106753 0.0008641375433)
(15.14615701 -0.01145942372 0.001348000125)
(15.13941508 -0.01188338108 0.002752559237)
(15.13102648 -0.01170446805 0.004582761871)
(15.12064827 -0.01136212306 0.006951835055)
(15.10960574 -0.0113408214 0.00879864548)
(15.09682607 -0.01230682168 0.01154214799)
(15.09146053 -0.014755054 0.01389445756)
(15.09228901 -0.01529794901 0.01296661872)
(15.10298775 -0.02027247521 0.01421954526)
(15.11384341 -0.0239981705 0.01561414203)
(15.12225345 -0.02538061834 0.0168770187)
(15.12921083 -0.02643322389 0.01794024024)
(15.13485919 -0.02760388472 0.01967019482)
(15.13970994 -0.02863318233 0.0225855536)
(15.14377654 -0.02930120188 0.02582005744)
(15.147484 -0.02981067402 0.02934027995)
(15.14941882 -0.0300145296 0.03158921916)
(15.15269968 -0.03015295345 0.03329753024)
(15.14850346 -0.03015017205 0.03561143976)
(15.16520145 -0.03220179836 0.03438757756)
(15.09054546 -0.03529859311 0.02827085158)
(15.32341859 -0.09398103132 -0.03267948392)
(15.01777279 0.007420956147 0.00585124452)
(15.02840384 0.01088619259 0.005891950124)
(15.03535002 0.01374996187 0.005863271738)
(15.04238611 0.01790724762 0.005811079464)
(15.04893475 0.02111394924 0.005138595568)
(15.05470499 0.02285416402 0.004268857254)
(15.05957528 0.02361725181 0.003597608728)
(15.06374764 0.02380126582 0.003162117275)
(15.06753852 0.02362208365 0.002889314069)
(15.07113522 0.02318354833 0.00272502257)
(15.07462353 0.02252957801 0.002628319192)
(15.07795205 0.02172167978 0.002568815708)
(15.08114234 0.02080470403 0.002560789536)
(15.08429943 0.01978908026 0.002649044692)
(15.08752543 0.01867598055 0.002854023318)
(15.09095048 0.0174623184 0.003137152336)
(15.09465582 0.0161268212 0.003404249294)
(15.09861303 0.01468488307 0.003620830446)
(15.10268415 0.01321438702 0.003796087665)
(15.10674741 0.01181596225 0.004078073584)
(15.11078421 0.01059876719 0.004550513499)
(15.11488104 0.009586387885 0.005271872073)
(15.11924306 0.008663622793 0.006282231539)
(15.12401083 0.007499335479 0.007299663416)
(15.1290756 0.00557056838 0.007536642981)
(15.13354944 0.002563537014 0.006650011555)
(15.13595072 -0.0005590176734 0.00556822853)
(15.13626096 -0.00371458324 0.004704907284)
(15.1342641 -0.006904680983 0.004626515549)
(15.13027065 -0.01025711904 0.005160695379)
(15.12535446 -0.01403564979 0.006334538857)
(15.11993593 -0.01890170573 0.007942499363)
(15.11585549 -0.02395790507 0.009572221483)
(15.11269175 -0.0300888444 0.01056018129)
(15.11394898 -0.03601013373 0.0131808833)
(15.11070393 -0.04091736047 0.009191139018)
(15.13335826 -0.04726360471 0.009768550636)
(15.14639602 -0.05241397123 0.01220204757)
(15.15396915 -0.05666834008 0.01412419493)
(15.15860639 -0.06091395005 0.01517014786)
(15.16242292 -0.06461506269 0.01642129472)
(15.16639418 -0.06750431483 0.01888145636)
(15.16966247 -0.06916698734 0.0213660644)
(15.17243833 -0.07039688467 0.0240883926)
(15.17371362 -0.07085471906 0.02596550354)
(15.17562913 -0.07095498571 0.02771784597)
(15.17188024 -0.07042504754 0.02932514433)
(15.1844112 -0.07018265219 0.03059449679)
(15.13647579 -0.07612786506 0.02980501799)
(15.25447534 -0.06123659857 -0.0131164499)
(15.01641862 0.003323403736 0.006041621842)
(15.02265253 0.004866243291 0.00728776403)
(15.02746986 0.005892710404 0.01127933673)
(15.03395743 0.006489949005 0.008500701196)
(15.04074058 0.006786662598 0.004449968687)
(15.04679395 0.006421504092 0.002519501379)
(15.05160118 0.005982171653 0.00271529352)
(15.05635143 0.005375725206 0.0031814007)
(15.06112386 0.004613714479 0.003269871283)
(15.06588196 0.003795723572 0.003161971082)
(15.07048669 0.002949765027 0.003036625422)
(15.07493905 0.002020508689 0.002955670589)
(15.07936242 0.0009418433771 0.002923581779)
(15.08380229 -0.0003275332514 0.002949266592)
(15.08833132 -0.001787372613 0.003046204707)
(15.09301083 -0.003442376243 0.003209298291)
(15.09787048 -0.005304991271 0.003412668667)
(15.10292342 -0.007365059043 0.003628542611)
(15.1081781 -0.009556264289 0.003852344707)
(15.11362376 -0.01176176659 0.004129103518)
(15.11923868 -0.01387201787 0.004538793935)
(15.12510492 -0.01583803378 0.005120529282)
(15.1313769 -0.01768432739 0.00586844862)
(15.13815369 -0.01966999955 0.006377042125)
(15.1453386 -0.02231163388 0.006274612399)
(15.15197676 -0.02567085583 0.005569474758)
(15.15546578 -0.02820581557 0.004945255668)
(15.15617585 -0.02962639181 0.004684149737)
(15.15471538 -0.03115655773 0.004936179034)
(15.15107131 -0.033016551 0.005807554457)
(15.1459528 -0.03547095489 0.007257745439)
(15.13985184 -0.03904751266 0.008726698525)
(15.13440031 -0.04334386 0.009893624288)
(15.12966394 -0.04911489513 0.00967226322)
(15.12973237 -0.05428874559 0.0105533722)
(15.12571292 -0.06125083219 0.005277690523)
(15.14461812 -0.06706401769 0.003544002298)
(15.15570623 -0.07346825283 0.004257304344)
(15.1625656 -0.08024942127 0.004933493018)
(15.1675757 -0.08687336328 0.005392747004)
(15.17254281 -0.09231287877 0.006632169953)
(15.17826834 -0.09707193911 0.00923520284)
(15.18259271 -0.09998284336 0.01159629967)
(15.18680111 -0.102730561 0.01430774613)
(15.18848276 -0.1040279295 0.01595024154)
(15.19338391 -0.1052424349 0.01729322582)
(15.18229906 -0.1047453142 0.01844382401)
(15.21820521 -0.1058756668 0.01739377912)
(15.13804495 -0.112115407 0.01504607561)
(15.24444654 -0.1152129705 -0.0273854576)
(15.01613611 0.002213690964 0.005755400145)
(15.02339157 0.004359850099 0.006235298837)
(15.02844663 0.007556477831 0.01023436104)
(15.03725742 0.01012780792 0.007668921464)
(15.04389385 0.01221883262 0.006411149456)
(15.04941934 0.01316672669 0.005155438902)
(15.05486414 0.01348776899 0.004528010801)
(15.05921032 0.01343216433 0.005429861312)
(15.06349863 0.01294478888 0.006463675644)
(15.06780909 0.0121087677 0.006944870705)
(15.07200322 0.01103627535 0.007137036013)
(15.07598904 0.009779080992 0.007273665281)
(15.07992047 0.008299673653 0.007402981682)
(15.08389504 0.006591900842 0.007487610238)
(15.08803434 0.004641129752 0.007570735102)
(15.09241022 0.002404928615 0.007682153429)
(15.0970725 -0.0001238466895 0.007842776136)
(15.10205122 -0.002915010729 0.008071342129)
(15.10733965 -0.005893919089 0.008350450311)
(15.11290616 -0.008978892829 0.0086462563)
(15.11871843 -0.01208287343 0.008986811908)
(15.12481295 -0.0151372098 0.00947804515)
(15.13128383 -0.01812535148 0.01012872074)
(15.13815728 -0.02116573849 0.01060710238)
(15.14526242 -0.02449514477 0.01046237966)
(15.15107386 -0.02762840011 0.009708993882)
(15.15425734 -0.03002049419 0.008899526102)
(15.15520235 -0.03211213852 0.008361581751)
(15.15392729 -0.03480734066 0.008362827213)
(15.1502769 -0.038191302 0.008946222367)
(15.14481537 -0.04236899323 0.009789898275)
(15.13850895 -0.04756965903 0.0103749148)
(15.13284309 -0.05354500784 0.01008206626)
(15.12883604 -0.06048790705 0.007924406212)
(15.12752927 -0.0679287501 0.004621862962)
(15.12848995 -0.07726090345 4.298891177e-05)
(15.13600118 -0.08481375772 -0.003426783311)
(15.14433165 -0.09293953649 -0.005825776864)
(15.15149556 -0.101781364 -0.007970341523)
(15.15878874 -0.1104397522 -0.009456816347)
(15.16609152 -0.1170197294 -0.009450513575)
(15.17442404 -0.1229308529 -0.00797917109)
(15.18060049 -0.1267660383 -0.006399279565)
(15.1867075 -0.1306165621 -0.004364181268)
(15.18978664 -0.1327813217 -0.002947780265)
(15.19545936 -0.1352377183 -0.001035503906)
(15.18941677 -0.1368542793 0.0005439413773)
(15.22242119 -0.1375628166 -9.620893698e-05)
(15.14218677 -0.1391575594 0.001219333516)
(15.25005387 -0.1379520306 -0.03931507781)
(15.01618658 0.001413007282 0.006017169721)
(15.02228949 0.002662340555 0.006207027107)
(15.02623002 0.004051305495 0.01044699671)
(15.03449803 0.004821399072 0.007793896894)
(15.03994246 0.005472236473 0.005767674894)
(15.0440593 0.005519517536 0.004687830849)
(15.04840603 0.004593564538 0.003515794865)
(15.05275795 0.003416741664 0.004066911936)
(15.05711902 0.002127978659 0.005026905069)
(15.06164962 0.0006294210911 0.00540804803)
(15.06624473 -0.001129584633 0.005442374415)
(15.07079107 -0.003156031165 0.005460784488)
(15.07530639 -0.005463948156 0.005471014012)
(15.07985481 -0.008022966578 0.005502829478)
(15.0844841 -0.01083312735 0.005537043334)
(15.08926258 -0.01392023643 0.005592791907)
(15.09428341 -0.01729876213 0.005701919428)
(15.09962815 -0.02096546905 0.005863459249)
(15.10534518 -0.02487956838 0.006050763586)
(15.11144419 -0.02896345082 0.00625643814)
(15.11792623 -0.03311115065 0.006545645908)
(15.12485224 -0.03719071497 0.007004455679)
(15.1322706 -0.04107416005 0.007631847283)
(15.14023095 -0.04478719579 0.00810365698)
(15.14844811 -0.04838853907 0.00806842824)
(15.15544605 -0.05143079782 0.007551283157)
(15.16037348 -0.05389363811 0.007033560004)
(15.16177481 -0.05507212829 0.006875543414)
(15.16097058 -0.05625724129 0.007130012356)
(15.15754849 -0.05775009298 0.007812088693)
(15.15187309 -0.05999670102 0.008548745172)
(15.1449123 -0.06327677432 0.008618309963)
(15.13805545 -0.06747401489 0.007305975132)
(15.13257961 -0.07267616877 0.004024343887)
(15.12943099 -0.07875637098 -0.00134381428)
(15.12903401 -0.08595029521 -0.007199086495)
(15.13197483 -0.09297418464 -0.01220910261)
(15.13659362 -0.1005995409 -0.01676837489)
(15.14234496 -0.1089045174 -0.02105835073)
(15.15005157 -0.117170541 -0.02405016902)
(15.15891375 -0.1242657829 -0.02490350005)
(15.16903775 -0.1307608884 -0.02406345656)
(15.17654094 -0.1350622733 -0.02281376031)
(15.18429065 -0.139534167 -0.02104027112)
(15.18767542 -0.1422366497 -0.01953801892)
(15.19646922 -0.1450927138 -0.01761306498)
(15.19138094 -0.147275785 -0.01499151939)
(15.22189017 -0.1465805604 -0.01617190239)
(15.14260834 -0.147796697 -0.01371099386)
(15.25115297 -0.1472406331 -0.05369743366)
(15.0162692 0.001068688027 0.005988914789)
(15.02258415 0.002091899942 0.006004874404)
(15.02696453 0.003657468396 0.009954208526)
(15.0359041 0.004733794636 0.007210715192)
(15.0421324 0.005945796802 0.004862429136)
(15.04593346 0.006829894995 0.003487201781)
(15.04996753 0.007105489697 0.002863661823)
(15.05424888 0.006675734049 0.00401321621)
(15.058533 0.005869365779 0.005369113852)
(15.06257648 0.004880707223 0.005934277008)
(15.06645746 0.003653438963 0.006091117464)
(15.07022357 0.002050965322 0.006163663247)
(15.07396613 -1.886849619e-06 0.006237613519)
(15.07780582 -0.002536497594 0.006307879322)
(15.08181105 -0.005553293818 0.00638191263)
(15.08603983 -0.009039623929 0.00648235969)
(15.0905672 -0.01298651368 0.006631892649)
(15.09547707 -0.0173712976 0.006831202983)
(15.10084053 -0.02214112767 0.00704726561)
(15.10668728 -0.02719862726 0.007257888095)
(15.11304184 -0.03241991619 0.007533633758)
(15.11994623 -0.03763529777 0.00798942245)
(15.12750536 -0.04268978962 0.008609848266)
(15.13557852 -0.04741348296 0.009109594767)
(15.14402748 -0.05183856713 0.009110780584)
(15.15121639 -0.05530556605 0.008572191607)
(15.15628417 -0.05788961856 0.007984563678)
(15.1580484 -0.05923252173 0.007779770367)
(15.15694072 -0.0607378889 0.008043546413)
(15.15361325 -0.06255364321 0.008683554657)
(15.14815694 -0.06501766904 0.009126685125)
(15.14001723 -0.06838219904 0.008433247011)
(15.13263372 -0.07203253023 0.005751762635)
(15.1266759 -0.07662349512 0.0003886042157)
(15.12312419 -0.0822400499 -0.006993714861)
(15.12254687 -0.08896526971 -0.01460518919)
(15.12485898 -0.09636656333 -0.02166321215)
(15.12884504 -0.1043884685 -0.02864928828)
(15.13444824 -0.1129969171 -0.03524808455)
(15.14262308 -0.1216914954 -0.03997780266)
(15.15261006 -0.1300331581 -0.04155866907)
(15.16403993 -0.1377283013 -0.04112389896)
(15.17422348 -0.1436338575 -0.04030834497)
(15.18178245 -0.1483953271 -0.0392033681)
(15.18856074 -0.1524299359 -0.0378635989)
(15.19528624 -0.1572369833 -0.03476856112)
(15.19321821 -0.1586660542 -0.03252801032)
(15.22503598 -0.1582447295 -0.03279925785)
(15.14790409 -0.1597827103 -0.02746441353)
(15.2587705 -0.1587797464 -0.06708260377)
(15.01623613 0.0006449702848 0.006041676279)
(15.02214749 0.001222903226 0.006002193788)
(15.02563642 0.001901331175 0.01004386303)
(15.03444463 0.002193897627 0.007161022693)
(15.03936237 0.002241741827 0.004585707205)
(15.04317474 0.002115688117 0.002326759669)
(15.04549236 0.001760616516 0.001286636127)
(15.04894358 0.0005740607061 0.002571997417)
(15.05285526 -0.001239042387 0.004302062488)
(15.05704304 -0.003345164442 0.005073944491)
(15.06118091 -0.005687431453 0.005265081652)
(15.06504147 -0.008271380667 0.005350984344)
(15.06878751 -0.01120447711 0.005422170044)
(15.07255142 -0.01455861874 0.005473380829)
(15.07642206 -0.01838930132 0.005525207521)
(15.08047873 -0.02273200315 0.005602972313)
(15.08482627 -0.02760557178 0.005723176517)
(15.08958814 -0.03300426483 0.005885335108)
(15.09487874 -0.03888127154 0.006059348308)
(15.10078301 -0.04513849146 0.006226773759)
(15.10737916 -0.05161535203 0.006457057296)
(15.11478138 -0.05809555571 0.006853856235)
(15.12312714 -0.06429063361 0.007440942527)
(15.13219061 -0.06989306788 0.00790260205)
(15.14229334 -0.07494985505 0.007984281376)
(15.15060063 -0.07833695027 0.007588841286)
(15.1577836 -0.08044665473 0.007104154185)
(15.16082532 -0.08082985325 0.007298669698)
(15.16078013 -0.08060042032 0.00752697535)
(15.1575573 -0.08022392061 0.007962564449)
(15.15138155 -0.07996400844 0.008175089605)
(15.14307204 -0.08032501855 0.006813082742)
(15.13471658 -0.08126911725 0.00275732521)
(15.12750223 -0.08288500352 -0.0047593552)
(15.12217054 -0.08500577582 -0.01437404075)
(15.1194825 -0.0872219937 -0.02444576355)
(15.11959146 -0.08970443098 -0.03355183134)
(15.12182354 -0.09375045286 -0.04238494537)
(15.12645045 -0.09994922232 -0.05062365996)
(15.13467789 -0.107558329 -0.05658271107)
(15.14480147 -0.1155750805 -0.05851166888)
(15.15796615 -0.1240994397 -0.05808286819)
(15.16898322 -0.1306649167 -0.05725697608)
(15.17819528 -0.1358247137 -0.05638189964)
(15.18676516 -0.1413210732 -0.05429341273)
(15.19312749 -0.1449502019 -0.05112191887)
(15.19249164 -0.1459578794 -0.04869717879)
(15.22492207 -0.1449584 -0.04898969209)
(15.14920925 -0.1451881647 -0.04159668183)
(15.26225974 -0.1434050862 -0.08092471572)
(15.016299 0.00044886601 0.006025968023)
(15.02221029 0.0008896062596 0.005948149605)
(15.02617902 0.001492312775 0.009868709403)
(15.03464157 0.00185720345 0.007038824539)
(15.04043495 0.002137166777 0.004165170063)
(15.04378792 0.002299024724 0.001829762031)
(15.04693631 0.002289258857 0.0004244000628)
(15.04910569 0.00201486712 0.001546916997)
(15.05269366 0.001181953413 0.003566409141)
(15.05639562 -0.0002259239288 0.004721959898)
(15.05989457 -0.002076180997 0.005111790268)
(15.06314928 -0.004369872863 0.005289370792)
(15.06623546 -0.00716689199 0.005423016623)
(15.06929162 -0.01055223216 0.005530244703)
(15.07242712 -0.01458917928 0.005626631402)
(15.07573879 -0.01932077402 0.005733112511)
(15.07934673 -0.02477783286 0.005870550307)
(15.08340382 -0.03097021468 0.006039657515)
(15.08807061 -0.03786260749 0.006206400435)
(15.09349506 -0.045350413 0.006345524201)
(15.09981046 -0.05324921282 0.006521159385)
(15.10722602 -0.06129495809 0.006853023032)
(15.11584932 -0.06905649652 0.007362450172)
(15.12589513 -0.07632772922 0.00778520521)
(15.13649022 -0.08234181122 0.007835781575)
(15.14686292 -0.08672392081 0.007360387497)
(15.15457616 -0.08876888045 0.006884309563)
(15.15967469 -0.0889108879 0.006817718788)
(15.16042001 -0.08759087014 0.007423444153)
(15.15749512 -0.08617849462 0.007960304226)
(15.1504829 -0.08404198379 0.007990523784)
(15.14194906 -0.08253597751 0.005917220142)
(15.13303345 -0.08166641578 0.0002613909134)
(15.12605524 -0.0813577861 -0.009188434324)
(15.12181359 -0.08182742245 -0.02056870823)
(15.12048108 -0.08293847878 -0.03276364231)
(15.12030557 -0.08481286021 -0.04436741423)
(15.12009645 -0.08828501975 -0.05520158201)
(15.12185303 -0.09391779388 -0.06487370664)
(15.12846899 -0.1012528175 -0.07151765768)
(15.13821228 -0.1093953446 -0.0734166497)
(15.15172213 -0.1185767729 -0.07270535113)
(15.16369934 -0.126191111 -0.07146609429)
(15.17396941 -0.13222797 -0.07018201895)
(15.18484437 -0.137496212 -0.06833559285)
(15.19278924 -0.1434964506 -0.06369998598)
(15.19424209 -0.1451105919 -0.06104113668)
(15.22943412 -0.1460847693 -0.06002480031)
(15.15551884 -0.1478481529 -0.05020744112)
(15.27028789 -0.1468951717 -0.08898800175)
(15.0163164 0.0002059772852 0.006047778203)
(15.0219003 0.0004035911232 0.00595430858)
(15.02572086 0.0005458874522 0.009923242379)
(15.03342036 0.0004804260302 0.007127732567)
(15.03899833 9.711537134e-05 0.004049929282)
(15.04158422 -0.0004026420277 0.001682043346)
(15.04460037 -0.001435740796 -6.513997309e-05)
(15.0461644 -0.00237194627 0.0009662916007)
(15.04901257 -0.003851760409 0.002963088862)
(15.05241608 -0.005892030823 0.00424504416)
(15.05571887 -0.008445103078 0.004805015478)
(15.05872525 -0.01139453787 0.005023842154)
(15.06145189 -0.01482629125 0.005145675996)
(15.06404806 -0.01886127019 0.005243905896)
(15.066649 -0.02359489953 0.005334919651)
(15.06936973 -0.02910554048 0.005428271272)
(15.07235243 -0.0354612692 0.005536570777)
(15.07578596 -0.04270392507 0.005660222155)
(15.07989466 -0.05083007985 0.005761828753)
(15.08490361 -0.05973918717 0.005804715096)
(15.091094 -0.06924208067 0.005839094221)
(15.09869992 -0.07904442829 0.006008121895)
(15.10834849 -0.0886192456 0.006321101345)
(15.11990331 -0.09739573188 0.006583875595)
(15.13194543 -0.1044503023 0.006549657964)
(15.14557873 -0.1094006166 0.005936774886)
(15.15477498 -0.1107762888 0.005399392032)
(15.16356224 -0.109529132 0.005391574243)
(15.16609775 -0.1055772487 0.006172828729)
(15.16368616 -0.101346108 0.007054473976)
(15.15686961 -0.09612643464 0.007065624397)
(15.14860496 -0.09235156853 0.004657050007)
(15.13858422 -0.08870300817 -0.002573202499)
(15.12987179 -0.08426942137 -0.01495962694)
(15.12304102 -0.07851551285 -0.03037718)
(15.1186153 -0.07142610329 -0.04767281771)
(15.11591537 -0.06462282575 -0.06351587167)
(15.11405632 -0.06211159544 -0.07733160198)
(15.11467259 -0.06463382183 -0.08770299572)
(15.12047093 -0.07074812861 -0.09474275539)
(15.13003716 -0.07902878507 -0.09642112434)
(15.14337692 -0.08913759649 -0.09519914784)
(15.15680495 -0.09813049716 -0.09389943308)
(15.16690375 -0.1054390148 -0.09222290863)
(15.17954928 -0.1115069311 -0.09014477292)
(15.18813759 -0.1171281047 -0.08529464258)
(15.1901479 -0.1181119217 -0.0826199472)
(15.22540547 -0.117617435 -0.08170437231)
(15.15425565 -0.1177291978 -0.06916499887)
(15.27310654 -0.115628667 -0.1074663555)
(15.01632441 9.918882156e-05 0.006034159946)
(15.02195191 0.0002222228602 0.005935456525)
(15.02579987 0.0003497529626 0.009876453693)
(15.03355639 0.000364032024 0.00705261232)
(15.03909683 0.0002190653872 0.003927851675)
(15.04161224 -3.041953196e-05 0.001478182677)
(15.04445763 -0.0006740288707 -0.0004152520765)
(15.04585762 -0.001330129875 0.0005049755239)
(15.04813968 -0.002498636165 0.002515084149)
(15.05093173 -0.003984610673 0.003836035271)
(15.0536925 -0.006121373348 0.004591605214)
(15.05613188 -0.008802098021 0.004918347274)
(15.05817482 -0.01209081849 0.005078352287)
(15.05996903 -0.0161054156 0.005200894924)
(15.06167194 -0.02096300709 0.005310681915)
(15.0634111 -0.02677545112 0.005407203169)
(15.0653464 -0.03364910014 0.005494235896)
(15.06769238 -0.04166396713 0.00556561952)
(15.07076562 -0.05085986121 0.005577850703)
(15.07480822 -0.0611983533 0.005485045008)
(15.08057733 -0.07251490144 0.005309378398)
(15.08811352 -0.08451076653 0.005210228981)
(15.09815313 -0.09649086166 0.005258347106)
(15.11118592 -0.1074751088 0.005257346155)
(15.12549359 -0.1164530774 0.005032987317)
(15.14082936 -0.1224156648 0.004225874221)
(15.15486875 -0.1239819084 0.003564288323)
(15.16499779 -0.1212343733 0.003829018323)
(15.17065333 -0.1144404341 0.004943957595)
(15.16838327 -0.1059959706 0.006266367086)
(15.16170653 -0.09700508508 0.00665190525)
(15.1520048 -0.09031747997 0.003858598427)
(15.14371762 -0.08633111838 -0.002927045271)
(15.13843694 -0.08382920095 -0.0141378751)
(15.13645068 -0.08109978082 -0.02763103223)
(15.13545123 -0.07566797344 -0.0425203678)
(15.13055847 -0.06728636627 -0.05902361183)
(15.12131136 -0.05957076671 -0.07583270438)
(15.11339823 -0.05560183398 -0.09445597679)
(15.11502116 -0.0576704895 -0.1020129146)
(15.12229792 -0.06386107275 -0.1045166593)
(15.13481376 -0.07293660057 -0.1043115646)
(15.14814778 -0.08191250319 -0.1036867858)
(15.16023676 -0.09058375287 -0.1015901082)
(15.17468775 -0.09698701538 -0.09930279296)
(15.18956069 -0.1052695126 -0.09261229034)
(15.19387769 -0.107760746 -0.08887629057)
(15.23280178 -0.1100861851 -0.0867759593)
(15.1629385 -0.1110864364 -0.07196809623)
(15.28228384 -0.1096542961 -0.1097110221)
(15.01632187 -5.332429694e-05 0.006042874134)
(15.02178603 -6.934846751e-05 0.005936621968)
(15.02553537 -0.0002638002328 0.00990693406)
(15.03293055 -0.0005106392317 0.007099524155)
(15.03829952 -0.001069793623 0.003907616578)
(15.04039737 -0.001627997751 0.001485415992)
(15.04299622 -0.00279762518 -0.0004972269229)
(15.04395729 -0.003732735045 0.000379739673)
(15.04583845 -0.005365498282 0.002365709713)
(15.04818871 -0.007116919789 0.003685473892)
(15.0504594 -0.00951548025 0.004472436412)
(15.05236439 -0.012490191 0.004816696481)
(15.05378244 -0.0160990172 0.004972166627)
(15.05483193 -0.02046048848 0.005080905041)
(15.05566207 -0.02571859792 0.005169131741)
(15.05639961 -0.03202630955 0.005227513579)
(15.05722074 -0.03954251131 0.005243517972)
(15.05835453 -0.04839787842 0.005195972012)
(15.06022745 -0.05871636581 0.005034282416)
(15.06326912 -0.07060446065 0.004691505384)
(15.06832123 -0.08390310176 0.004183021425)
(15.07568677 -0.09820843712 0.003656862068)
(15.08575387 -0.1128274857 0.003235526485)
(15.10059349 -0.1264232801 0.002661412974)
(15.11845343 -0.1374872009 0.001773986676)
(15.13757798 -0.1446679143 0.0004949509696)
(15.15672182 -0.1467131119 -0.0002492528189)
(15.17255566 -0.1422662907 0.0006123208847)
(15.18183576 -0.1336049579 0.002604161115)
(15.1813184 -0.1225415431 0.004708518539)
(15.17457157 -0.1114713336 0.005657580055)
(15.16171238 -0.1008496941 0.003547949326)
(15.14798178 -0.09088108827 -0.002921924847)
(15.13764961 -0.07846530068 -0.01471968422)
(15.13278924 -0.06244379033 -0.03026862245)
(15.13323371 -0.04040681941 -0.046199816)
(15.13188333 -0.01736116422 -0.06689439631)
(15.1257107 -0.008005961648 -0.08427963967)
(15.11625472 -0.007234097827 -0.1044755618)
(15.112989 -0.01275738867 -0.1159732068)
(15.11691944 -0.02129489527 -0.1203781789)
(15.12700848 -0.03288508567 -0.1218398477)
(15.13887946 -0.04466516276 -0.1218662245)
(15.15235269 -0.05572130734 -0.1202943423)
(15.16494719 -0.06273944544 -0.1190557393)
(15.18046508 -0.0705503803 -0.1139065453)
(15.18482354 -0.0723409144 -0.110881781)
(15.22291345 -0.07430208167 -0.1086824486)
(15.15935948 -0.0715179079 -0.09290458064)
(15.28457567 -0.06844709626 -0.1303698448)
(15.01634163 -6.860931239e-05 0.006038934617)
(15.02176131 -8.66818228e-05 0.005927790657)
(15.02554981 -0.0002267781247 0.009890654158)
(15.03275923 -0.0003960624812 0.007094501354)
(15.03814003 -0.0007989893844 0.003830174734)
(15.03996779 -0.001196843374 0.001430838562)
(15.04249841 -0.002151064948 -0.0006306346375)
(15.04307602 -0.002867209759 0.0002442539524)
(15.04465978 -0.00426010093 0.00224742727)
(15.04653804 -0.005717970606 0.003533834726)
(15.04826757 -0.007811051483 0.004341617128)
(15.04954173 -0.01050314646 0.004716701929)
(15.05020826 -0.01387126276 0.004889387191)
(15.05035665 -0.01804928808 0.00499830515)
(15.05011918 -0.02320591962 0.005069967259)
(15.04960157 -0.02953657829 0.005089158757)
(15.04901264 -0.03724972319 0.005019526463)
(15.04847367 -0.04655329807 0.004818838002)
(15.04886202 -0.05776284787 0.004409909514)
(15.0503575 -0.07104213899 0.003741624057)
(15.05369523 -0.08624721194 0.002784779095)
(15.06018962 -0.1029566965 0.001624916847)
(15.07060045 -0.1205899321 0.0004292026305)
(15.0866614 -0.1376698937 -0.00102900429)
(15.10888529 -0.1517706784 -0.003230983499)
(15.13328567 -0.1603759414 -0.005444607241)
(15.15696865 -0.1607385873 -0.006054561305)
(15.1784728 -0.1512692949 -0.004220252197)
(15.19066686 -0.1340955916 -0.0006983194756)
(15.1915947 -0.1171382332 0.002336758387)
(15.18386689 -0.100990677 0.003790071215)
(15.17504828 -0.09232006728 0.002919757829)
(15.16708576 -0.08615756372 -0.004830955915)
(15.17130473 -0.08490340572 -0.01059990693)
(15.17865144 -0.08157191681 -0.01822966756)
(15.17893685 -0.06359918453 -0.02018247524)
(15.15832765 -0.0330076916 -0.03312078879)
(15.12783976 -0.003493723891 -0.0541950934)
(15.1054423 0.01496655968 -0.08107341817)
(15.0980844 0.01622170185 -0.09577420864)
(15.10073572 0.01075769057 -0.1010047609)
(15.10960718 0.000519133165 -0.1034699553)
(15.12289904 -0.01104203031 -0.1041663842)
(15.14012959 -0.02291196875 -0.1028156379)
(15.15585645 -0.0319088337 -0.1002396624)
(15.18007698 -0.04191670026 -0.09382898364)
(15.18627111 -0.04599845121 -0.08866714854)
(15.22797462 -0.04996081772 -0.0842741023)
(15.16704004 -0.04868687191 -0.06995186576)
(15.28875135 -0.0463019162 -0.1090473472)
(15.01634368 -0.0001517886351 0.006044164212)
(15.02166377 -0.0002423168959 0.005926935899)
(15.02543191 -0.0005166516831 0.009904198226)
(15.03237218 -0.0007783262034 0.007131788309)
(15.03769144 -0.001322812738 0.003802433016)
(15.03917074 -0.001792873542 0.001453661006)
(15.04156084 -0.002921330847 -0.0006746097266)
(15.0417239 -0.003626147862 0.0001955175104)
(15.04298547 -0.00511736566 0.002233327813)
(15.04444852 -0.00658858318 0.003494327895)
(15.04567068 -0.008671269718 0.004298841291)
(15.04634724 -0.0113199098 0.004673816902)
(15.04629462 -0.01461706685 0.004841397336)
(15.04556736 -0.0187069631 0.004929612503)
(15.04425838 -0.02377210016 0.004960418432)
(15.0424625 -0.03004743783 0.004907550765)
(15.04030505 -0.03776386329 0.004715242904)
(15.03806115 -0.04726421024 0.00428619402)
(15.03663635 -0.05903681498 0.003559395823)
(15.03572425 -0.07327682805 0.002475498735)
(15.03714715 -0.0899348752 0.0007819103818)
(15.04185925 -0.1088806226 -0.001439632708)
(15.05305854 -0.1296120986 -0.004066186032)
(15.07049535 -0.1507126437 -0.007436082538)
(15.09672283 -0.1697965005 -0.01185395104)
(15.13109092 -0.1831592427 -0.01544444276)
(15.16757289 -0.1874039279 -0.01553804826)
(15.2012494 -0.1782641995 -0.01114111742)
(15.21785761 -0.1604277658 -0.004892635403)
(15.21612426 -0.1397277075 0.0003176270113)
(15.20032918 -0.1192864642 0.003167333267)
(15.17508096 -0.09955840667 0.001907228109)
(15.15720844 -0.08460724906 -0.003894052404)
(15.14145119 -0.06664241287 -0.01991977696)
(15.16371613 -0.06233081169 -0.02586351887)
(15.17476585 -0.004136395299 -0.03288445715)
(15.18693921 0.03244281188 -0.03402574875)
(15.16139306 0.03748113134 -0.04673028577)
(15.12772967 0.0423643867 -0.0707359097)
(15.1038617 0.03985184569 -0.09678450207)
(15.09761149 0.0298695804 -0.1101106024)
(15.10184591 0.01496580522 -0.1187387247)
(15.11253709 0.0006550200436 -0.1239667004)
(15.12832953 -0.01224478042 -0.1265754898)
(15.14329963 -0.02109480715 -0.1278765525)
(15.16538762 -0.03100334564 -0.1239449882)
(15.17258517 -0.03334456056 -0.1213093235)
(15.21475646 -0.03526055321 -0.1164483225)
(15.15980702 -0.03004360301 -0.1010044843)
(15.28774617 -0.02632632486 -0.1378133114)
(15.01634316 -0.0001339363262 0.00603992942)
(15.02165441 -0.0002072590247 0.005922266209)
(15.02533435 -0.0004026717856 0.009907072012)
(15.0322893 -0.0006030687149 0.007105677028)
(15.03740206 -0.0009992597508 0.003792719765)
(15.03883047 -0.001365943662 0.001395996205)
(15.04095329 -0.00224372099 -0.0007244019842)
(15.0408979 -0.002771768835 0.0001446621039)
(15.04189113 -0.004002928831 0.002220800176)
(15.04295761 -0.005179979625 0.003442101301)
(15.04371479 -0.006903286279 0.004240136984)
(15.04382157 -0.009136510004 0.004617500587)
(15.04305758 -0.01196965821 0.0047829731)
(15.04144621 -0.01555303018 0.004855889927)
(15.03901963 -0.02007530987 0.004852157186)
(15.0359003 -0.02579855859 0.004720128996)
(15.0319083 -0.03298518159 0.004387130161)